calculator: siesta
length_unit: au
nqpoint: 303    
npath: 3      
segment_nqpoint:
- 101
- 101
- 101
labels:
- [ 'G', 'K' ]
- [ 'K', 'M' ]
- [ 'M', '$\Gamma$' ]
reciprocal_lattice:
- [   0.12422000,  -0.21515535,   0.00000000 ] # a*
- [   0.12422000,   0.21515535,   0.00000000 ] # b*
- [   0.00000000,   0.00000000,   0.02645886 ] # c*
natom: 2      
lattice:
- [     4.025116671915840,    -2.323902187674509,     0.000000000000000 ] # a
- [     4.025116671915840,     2.323902187674509,     0.000000000000000 ] # b
- [     0.000000000000000,     0.000000000000000,    37.794522740993806 ] # c
points:
- symbol: C # 1
  coordinates: [  0.000000000000000,  0.000000000000000,  0.000000000000000 ]
  mass: 12.010700
- symbol: C # 2
  coordinates: [  0.333098591549296,  0.333098591549296,  0.000000000000000 ]
  mass: 12.010700

phonon:
- q-position: [    0.0000000,    0.0000000,    0.0000000 ]
  distance:    0.0000000
  band:
  - # 1
    frequency:    0.0003273129
    eigenvector:
    - # atom 1
      - [  0.00000000161561,  0.00000000000000 ]
      - [  0.00000001982290,  0.00000000000000 ]
      - [  0.70710678118655,  0.00000000000000 ]
    - # atom 2
      - [  0.00000000161561,  0.00000000000000 ]
      - [  0.00000001982290,  0.00000000000000 ]
      - [  0.70710678118655,  0.00000000000000 ]
  - # 2
    frequency:    0.0014757885
    eigenvector:
    - # atom 1
      - [ -0.00000005034386,  0.00000000000000 ]
      - [  0.70710678118655,  0.00000000000000 ]
      - [ -0.00000001982290,  0.00000000000000 ]
    - # atom 2
      - [ -0.00000005034386,  0.00000000000000 ]
      - [  0.70710678118655,  0.00000000000000 ]
      - [ -0.00000001982290,  0.00000000000000 ]
  - # 3
    frequency:    0.0021859266
    eigenvector:
    - # atom 1
      - [ -0.70710678118655,  0.00000000000000 ]
      - [ -0.00000005034386,  0.00000000000000 ]
      - [  0.00000000161561,  0.00000000000000 ]
    - # atom 2
      - [ -0.70710678118655,  0.00000000000000 ]
      - [ -0.00000005034386,  0.00000000000000 ]
      - [  0.00000000161561,  0.00000000000000 ]
  - # 4
    frequency:   24.7689618364
    eigenvector:
    - # atom 1
      - [  0.00000000000000,  0.00000000000000 ]
      - [ -0.00000000000000,  0.00000000000000 ]
      - [  0.70710678118655,  0.00000000000000 ]
    - # atom 2
      - [ -0.00000000000000,  0.00000000000000 ]
      - [ -0.00000000000000,  0.00000000000000 ]
      - [ -0.70710678118655,  0.00000000000000 ]
  - # 5
    frequency:   51.9806839181
    eigenvector:
    - # atom 1
      - [  0.00000000000004, -0.00000000000000 ]
      - [  0.70710678118655,  0.00000000000000 ]
      - [ -0.00000000000000,  0.00000000000000 ]
    - # atom 2
      - [ -0.00000000000004,  0.00000000000000 ]
      - [ -0.70710678118655,  0.00000000000000 ]
      - [  0.00000000000000,  0.00000000000000 ]
  - # 6
    frequency:   52.1345718809
    eigenvector:
    - # atom 1
      - [ -0.70710678118655,  0.00000000000000 ]
      - [  0.00000000000004,  0.00000000000000 ]
      - [  0.00000000000000,  0.00000000000000 ]
    - # atom 2
      - [  0.70710678118655,  0.00000000000000 ]
      - [ -0.00000000000004,  0.00000000000000 ]
      - [ -0.00000000000000,  0.00000000000000 ]

- q-position: [    0.0066667,    0.0033333,    0.0000000 ]
  distance:    0.0014344
  band:
  - # 1
    frequency:    0.0726820425
    eigenvector:
    - # atom 1
      - [  0.00000000000027,  0.00000000000000 ]
      - [  0.00000000000085, -0.00000000000001 ]
      - [ -0.70674799931005,  0.02252255472274 ]
    - # atom 2
      - [  0.00000000000027, -0.00000000000000 ]
      - [  0.00000000000085, -0.00000000000000 ]
      - [ -0.70671710575707,  0.02347194986253 ]
  - # 2
    frequency:    0.3254939466
    eigenvector:
    - # atom 1
      - [  0.33351373609450,  0.00000000000000 ]
      - [  0.62349799456875, -0.00434034618891 ]
      - [  0.00000000000087, -0.00000000000003 ]
    - # atom 2
      - [  0.33349665300146, -0.00337558891670 ]
      - [  0.62350998792856, -0.00197047953971 ]
      - [  0.00000000000087, -0.00000000000003 ]
  - # 3
    frequency:    0.5866356483
    eigenvector:
    - # atom 1
      - [  0.62351309308115,  0.00000000000000 ]
      - [ -0.33350563247164,  0.00232720133827 ]
      - [ -0.00000000000016,  0.00000000000000 ]
    - # atom 2
      - [  0.62351063156976, -0.00175201686701 ]
      - [ -0.33351085508544, -0.00139007070179 ]
      - [ -0.00000000000016,  0.00000000000000 ]
  - # 4
    frequency:   24.7684421242
    eigenvector:
    - # atom 1
      - [ -0.00000000000000,  0.00000000000000 ]
      - [ -0.00000000000000,  0.00000000000000 ]
      - [ -0.70709738707698, -0.00364488530845 ]
    - # atom 2
      - [  0.00000000000000,  0.00000000000000 ]
      - [ -0.00000000000000, -0.00000000000000 ]
      - [  0.70710164544432,  0.00269499720484 ]
  - # 5
    frequency:   51.9789617950
    eigenvector:
    - # atom 1
      - [  0.00561083369751, -0.00000000000000 ]
      - [  0.69318364148787, -0.13951687252383 ]
      - [ -0.00000000000000, -0.00000000000000 ]
    - # atom 2
      - [ -0.00518561759456,  0.00214262104536 ]
      - [ -0.69392844000102,  0.13576390795411 ]
      - [  0.00000000000000, -0.00000000000000 ]
  - # 6
    frequency:   52.1341068912
    eigenvector:
    - # atom 1
      - [ -0.70708452757636,  0.00000000000000 ]
      - [  0.00550055210687, -0.00110217450403 ]
      - [  0.00000000000000,  0.00000000000000 ]
    - # atom 2
      - [  0.70707764353483, -0.00312012036836 ]
      - [ -0.00550536207083, -0.00107789173244 ]
      - [ -0.00000000000000,  0.00000000000000 ]

- q-position: [    0.0133333,    0.0066667,    0.0000000 ]
  distance:    0.0028687
  band:
  - # 1
    frequency:    0.1453849832
    eigenvector:
    - # atom 1
      - [  0.00000000000004,  0.00000000000000 ]
      - [  0.00000000000015, -0.00000000000000 ]
      - [ -0.69999560430177,  0.10003076505855 ]
    - # atom 2
      - [  0.00000000000004, -0.00000000000000 ]
      - [  0.00000000000015, -0.00000000000000 ]
      - [ -0.69972529791928,  0.10190440349550 ]
  - # 2
    frequency:    0.6511078267
    eigenvector:
    - # atom 1
      - [  0.33355969555601,  0.00000000000000 ]
      - [  0.62342808658011, -0.00868045872281 ]
      - [  0.00000000000015, -0.00000000000002 ]
    - # atom 2
      - [  0.33349133980732, -0.00675253825872 ]
      - [  0.62347605471365, -0.00394191568735 ]
      - [  0.00000000000015, -0.00000000000002 ]
  - # 3
    frequency:    1.1731241294
    eigenvector:
    - # atom 1
      - [  0.62348847476134,  0.00000000000000 ]
      - [ -0.33352725513262,  0.00465745890851 ]
      - [ -0.00000000000003,  0.00000000000000 ]
    - # atom 2
      - [  0.62347859834965, -0.00350935324174 ]
      - [ -0.33354818674013, -0.00278010110580 ]
      - [ -0.00000000000003,  0.00000000000000 ]
  - # 4
    frequency:   24.7668815404
    eigenvector:
    - # atom 1
      - [ -0.00000000000000,  0.00000000000000 ]
      - [ -0.00000000000000, -0.00000000000000 ]
      - [ -0.70706837397803, -0.00736983853722 ]
    - # atom 2
      - [  0.00000000000000,  0.00000000000000 ]
      - [ -0.00000000000000, -0.00000000000000 ]
      - [  0.70708557033925,  0.00547688031846 ]
  - # 5
    frequency:   51.9736869285
    eigenvector:
    - # atom 1
      - [  0.02156681620583, -0.00000000000000 ]
      - [  0.70249648408687, -0.07767600842172 ]
      - [ -0.00000000000000,  0.00000000000000 ]
    - # atom 2
      - [ -0.02109498152108,  0.00448657061477 ]
      - [ -0.70328643331201,  0.07016455770556 ]
      - [  0.00000000000000, -0.00000000000000 ]
  - # 6
    frequency:   52.1328164064
    eigenvector:
    - # atom 1
      - [ -0.70677784612925,  0.00000000000000 ]
      - [  0.02143629120137, -0.00235831304575 ]
      - [  0.00000000000000,  0.00000000000000 ]
    - # atom 2
      - [  0.70675112590806, -0.00614571450682 ]
      - [ -0.02145598725767, -0.00217182680941 ]
      - [ -0.00000000000000,  0.00000000000000 ]

- q-position: [    0.0200000,    0.0100000,    0.0000000 ]
  distance:    0.0043031
  band:
  - # 1
    frequency:    0.2181328035
    eigenvector:
    - # atom 1
      - [ -0.00000000000006,  0.00000000000000 ]
      - [ -0.00000000000016,  0.00000000000000 ]
      - [ -0.70654095519359, -0.02828212570030 ]
    - # atom 2
      - [ -0.00000000000006,  0.00000000000000 ]
      - [ -0.00000000000016,  0.00000000000000 ]
      - [ -0.70664822497908, -0.02546146370338 ]
  - # 2
    frequency:    0.9769747136
    eigenvector:
    - # atom 1
      - [  0.33363309029934,  0.00000000000000 ]
      - [  0.62331327166028, -0.01302023154448 ]
      - [ -0.00000000000017, -0.00000000000001 ]
    - # atom 2
      - [  0.33347920141224, -0.01013218476669 ]
      - [  0.62342118183785, -0.00591532697361 ]
      - [ -0.00000000000017, -0.00000000000001 ]
  - # 3
    frequency:    1.7593300137
    eigenvector:
    - # atom 1
      - [  0.62344912534912,  0.00000000000000 ]
      - [ -0.33356000167637,  0.00699381033994 ]
      - [  0.00000000000002,  0.00000000000000 ]
    - # atom 2
      - [  0.62342678907057, -0.00527736371194 ]
      - [ -0.33360725235102, -0.00417004558878 ]
      - [  0.00000000000002,  0.00000000000000 ]
  - # 4
    frequency:   24.7642757486
    eigenvector:
    - # atom 1
      - [ -0.00000000000000,  0.00000000000000 ]
      - [  0.00000000000000, -0.00000000000000 ]
      - [ -0.70702142414220, -0.01098661931316 ]
    - # atom 2
      - [  0.00000000000000,  0.00000000000000 ]
      - [  0.00000000000000, -0.00000000000000 ]
      - [  0.70705964826996,  0.00816417713948 ]
  - # 5
    frequency:   51.9645628005
    eigenvector:
    - # atom 1
      - [  0.04627348938610, -0.00000000000000 ]
      - [  0.70306928822082, -0.05960151122834 ]
      - [  0.00000000000000,  0.00000000000000 ]
    - # atom 2
      - [ -0.04572990880258,  0.00707186403098 ]
      - [ -0.70391899655334,  0.04854699240297 ]
      - [  0.00000000000000, -0.00000000000000 ]
  - # 6
    frequency:   52.1309849456
    eigenvector:
    - # atom 1
      - [ -0.70559118003186,  0.00000000000000 ]
      - [  0.04610844341441, -0.00388562828181 ]
      - [  0.00000000000000,  0.00000000000000 ]
    - # atom 2
      - [  0.70553390479016, -0.00899013516593 ]
      - [ -0.04615420851484, -0.00329783225966 ]
      - [ -0.00000000000000,  0.00000000000000 ]

- q-position: [    0.0266667,    0.0133333,    0.0000000 ]
  distance:    0.0057375
  band:
  - # 1
    frequency:    0.2909492018
    eigenvector:
    - # atom 1
      - [ -0.00000000000001,  0.00000000000000 ]
      - [ -0.00000000000002,  0.00000000000000 ]
      - [ -0.70673306838354,  0.02298630142460 ]
    - # atom 2
      - [ -0.00000000000001,  0.00000000000000 ]
      - [ -0.00000000000002,  0.00000000000000 ]
      - [ -0.70660189743454,  0.02671625987879 ]
  - # 2
    frequency:    1.3032169167
    eigenvector:
    - # atom 1
      - [  0.33373530547833,  0.00000000000000 ]
      - [  0.62315278504909, -0.01735950353117 ]
      - [ -0.00000000000002,  0.00000000000000 ]
    - # atom 2
      - [  0.33346150439514, -0.01351588729029 ]
      - [  0.62334458131563, -0.00789169321034 ]
      - [ -0.00000000000002,  0.00000000000000 ]
  - # 3
    frequency:    2.3451100297
    eigenvector:
    - # atom 1
      - [  0.62339425482431,  0.00000000000000 ]
      - [ -0.33360512631552,  0.00933931196904 ]
      - [  0.00000000000000, -0.00000000000000 ]
    - # atom 2
      - [  0.62335426078474, -0.00706133907020 ]
      - [ -0.33368951245072, -0.00555988601019 ]
      - [  0.00000000000000, -0.00000000000000 ]
  - # 4
    frequency:   24.7606175368
    eigenvector:
    - # atom 1
      - [ -0.00000000000000,  0.00000000000000 ]
      - [  0.00000000000000,  0.00000000000000 ]
      - [ -0.70696271992981, -0.01427279332997 ]
    - # atom 2
      - [  0.00000000000000,  0.00000000000000 ]
      - [  0.00000000000000,  0.00000000000000 ]
      - [  0.70702820674455,  0.01054110371735 ]
  - # 5
    frequency:   51.9511855891
    eigenvector:
    - # atom 1
      - [  0.07702677334782, -0.00000000000000 ]
      - [  0.70091868888169, -0.05272445129153 ]
      - [  0.00000000000000,  0.00000000000000 ]
    - # atom 2
      - [ -0.07637943302935,  0.00996524071416 ]
      - [ -0.70184926039918,  0.03839911281200 ]
      - [  0.00000000000000, -0.00000000000000 ]
  - # 6
    frequency:   52.1289964667
    eigenvector:
    - # atom 1
      - [ -0.70289915714629,  0.00000000000000 ]
      - [  0.07681055011637, -0.00573709629174 ]
      - [  0.00000000000000,  0.00000000000000 ]
    - # atom 2
      - [  0.70280363211310, -0.01158791636141 ]
      - [ -0.07689469257270, -0.00447002653119 ]
      - [ -0.00000000000000,  0.00000000000000 ]

- q-position: [    0.0333333,    0.0166667,    0.0000000 ]
  distance:    0.0071718
  band:
  - # 1
    frequency:    0.3638599032
    eigenvector:
    - # atom 1
      - [ -0.00000000000000,  0.00000000000000 ]
      - [ -0.00000000000001,  0.00000000000000 ]
      - [ -0.70131815140806, -0.09029313653640 ]
    - # atom 2
      - [ -0.00000000000000,  0.00000000000000 ]
      - [ -0.00000000000001,  0.00000000000000 ]
      - [ -0.70189254598048, -0.08571379058843 ]
  - # 2
    frequency:    1.6299547006
    eigenvector:
    - # atom 1
      - [  0.33386639850154,  0.00000000000000 ]
      - [  0.62294656135325, -0.02169814853329 ]
      - [ -0.00000000000001, -0.00000000000000 ]
    - # atom 2
      - [  0.33343813915606, -0.01690501122548 ]
      - [  0.62324615651569, -0.00987199777298 ]
      - [ -0.00000000000001, -0.00000000000000 ]
  - # 3
    frequency:    2.9303210513
    eigenvector:
    - # atom 1
      - [  0.62332376371857,  0.00000000000000 ]
      - [ -0.33366250185808,  0.01169702686675 ]
      - [  0.00000000000000,  0.00000000000000 ]
    - # atom 2
      - [  0.62326069917757, -0.00886652564256 ]
      - [ -0.33379512910726, -0.00694963078055 ]
      - [  0.00000000000000,  0.00000000000000 ]
  - # 4
    frequency:   24.7558968404
    eigenvector:
    - # atom 1
      - [ -0.00000000000000,  0.00000000000000 ]
      - [ -0.00000000000000, -0.00000000000000 ]
      - [ -0.70688900995739, -0.01754786600893 ]
    - # atom 2
      - [  0.00000000000000,  0.00000000000000 ]
      - [  0.00000000000000,  0.00000000000000 ]
      - [  0.70698848587944,  0.01293370920872 ]
  - # 5
    frequency:   51.9331525792
    eigenvector:
    - # atom 1
      - [  0.11057572407155, -0.00000000000000 ]
      - [  0.69659450261757, -0.05029023930182 ]
      - [ -0.00000000000000,  0.00000000000000 ]
    - # atom 2
      - [ -0.10978929228890,  0.01316442374928 ]
      - [ -0.69762744149363,  0.03299942607230 ]
      - [  0.00000000000000, -0.00000000000000 ]
  - # 6
    frequency:   52.1272261559
    eigenvector:
    - # atom 1
      - [ -0.69840799163625,  0.00000000000000 ]
      - [  0.11029026136819, -0.00789528124624 ]
      - [  0.00000000000000,  0.00000000000000 ]
    - # atom 2
      - [  0.69826945106918, -0.01391030139601 ]
      - [ -0.11042563505738, -0.00569704667304 ]
      - [ -0.00000000000000,  0.00000000000000 ]

- q-position: [    0.0400000,    0.0200000,    0.0000000 ]
  distance:    0.0086062
  band:
  - # 1
    frequency:    0.4368931610
    eigenvector:
    - # atom 1
      - [  0.00000000000001,  0.00000000000000 ]
      - [  0.00000000000002, -0.00000000000000 ]
      - [ -0.70283829253404, -0.07757792564795 ]
    - # atom 2
      - [  0.00000000000001, -0.00000000000000 ]
      - [  0.00000000000002,  0.00000000000000 ]
      - [ -0.70341689933364, -0.07214336928539 ]
  - # 2
    frequency:    1.9573046534
    eigenvector:
    - # atom 1
      - [  0.33402625516283,  0.00000000000000 ]
      - [  0.62269461495332, -0.02603607823830 ]
      - [  0.00000000000002,  0.00000000000000 ]
    - # atom 2
      - [  0.33340877506396, -0.02030093220660 ]
      - [  0.62312588382696, -0.01185722424350 ]
      - [  0.00000000000002,  0.00000000000000 ]
  - # 3
    frequency:    3.5148193236
    eigenvector:
    - # atom 1
      - [  0.62323762478412,  0.00000000000000 ]
      - [ -0.33373177456302,  0.01407002844599 ]
      - [ -0.00000000000000, -0.00000000000000 ]
    - # atom 2
      - [  0.62314579950794, -0.01069810740987 ]
      - [ -0.33392412120327, -0.00833932443748 ]
      - [ -0.00000000000000, -0.00000000000000 ]
  - # 4
    frequency:   24.7501007731
    eigenvector:
    - # atom 1
      - [ -0.00000000000000,  0.00000000000000 ]
      - [ -0.00000000000000,  0.00000000000000 ]
      - [ -0.70682978240074, -0.01979036915581 ]
    - # atom 2
      - [  0.00000000000000,  0.00000000000000 ]
      - [ -0.00000000000000,  0.00000000000000 ]
      - [  0.70696162978840,  0.01432668862408 ]
  - # 5
    frequency:   51.9101561891
    eigenvector:
    - # atom 1
      - [  0.14386526328776, -0.00000000000000 ]
      - [  0.69050676511985, -0.05003192323772 ]
      - [  0.00000000000000,  0.00000000000000 ]
    - # atom 2
      - [ -0.14290210326801,  0.01661935204620 ]
      - [ -0.69166360890898,  0.03007055254152 ]
      - [  0.00000000000000, -0.00000000000000 ]
  - # 6
    frequency:   52.1259466790
    eigenvector:
    - # atom 1
      - [ -0.69231792547535,  0.00000000000000 ]
      - [  0.14349200816520, -0.01029240779550 ]
      - [  0.00000000000000,  0.00000000000000 ]
    - # atom 2
      - [  0.69213366606468, -0.01597179496357 ]
      - [ -0.14369126412702, -0.00697930362483 ]
      - [ -0.00000000000000,  0.00000000000000 ]

- q-position: [    0.0466667,    0.0233333,    0.0000000 ]
  distance:    0.0100406
  band:
  - # 1
    frequency:    0.5100803622
    eigenvector:
    - # atom 1
      - [  0.00000000000000,  0.00000000000000 ]
      - [  0.00000000000001, -0.00000000000000 ]
      - [ -0.67815857789603,  0.20025219905417 ]
    - # atom 2
      - [  0.00000000000000, -0.00000000000000 ]
      - [  0.00000000000001, -0.00000000000000 ]
      - [ -0.67635444299273,  0.20626358729545 ]
  - # 2
    frequency:    2.2853786936
    eigenvector:
    - # atom 1
      - [  0.33421469747315,  0.00000000000000 ]
      - [  0.62239698079100, -0.03037324966434 ]
      - [  0.00000000000001, -0.00000000000000 ]
    - # atom 2
      - [  0.33337296705440, -0.02370503837614 ]
      - [  0.62298375503856, -0.01384835553359 ]
      - [  0.00000000000001, -0.00000000000000 ]
  - # 3
    frequency:    4.0984602103
    eigenvector:
    - # atom 1
      - [  0.62313582536450,  0.00000000000000 ]
      - [ -0.33381247034385,  0.01646140304570 ]
      - [ -0.00000000000000,  0.00000000000000 ]
    - # atom 2
      - [  0.62300920806967, -0.01256119075208 ]
      - [ -0.33407647120053, -0.00972905635181 ]
      - [ -0.00000000000000,  0.00000000000000 ]
  - # 4
    frequency:   24.7432136667
    eigenvector:
    - # atom 1
      - [ -0.00000000000000,  0.00000000000000 ]
      - [ -0.00000000000000, -0.00000000000000 ]
      - [ -0.70663607616337, -0.02579643123460 ]
    - # atom 2
      - [  0.00000000000000,  0.00000000000000 ]
      - [ -0.00000000000000, -0.00000000000000 ]
      - [  0.70683720745162,  0.01952337475936 ]
  - # 5
    frequency:   51.8820276334
    eigenvector:
    - # atom 1
      - [  0.17467582494133, -0.00000000000000 ]
      - [  0.68329204659964, -0.05099348227713 ]
      - [ -0.00000000000000,  0.00000000000000 ]
    - # atom 2
      - [ -0.17349673027582,  0.02026150050056 ]
      - [ -0.68459467940316,  0.02860910893323 ]
      - [  0.00000000000000, -0.00000000000000 ]
  - # 6
    frequency:   52.1252848682
    eigenvector:
    - # atom 1
      - [ -0.68519386696124,  0.00000000000000 ]
      - [  0.17419640935137, -0.01284428463542 ]
      - [  0.00000000000000, -0.00000000000000 ]
    - # atom 2
      - [  0.68496208234595, -0.01782080440387 ]
      - [ -0.17447154234009, -0.00830936773626 ]
      - [ -0.00000000000000,  0.00000000000000 ]

- q-position: [    0.0533333,    0.0266667,    0.0000000 ]
  distance:    0.0114750
  band:
  - # 1
    frequency:    0.5834566412
    eigenvector:
    - # atom 1
      - [ -0.00000000000001,  0.00000000000000 ]
      - [ -0.00000000000002,  0.00000000000000 ]
      - [ -0.70169773284934,  0.08729428225320 ]
    - # atom 2
      - [ -0.00000000000001,  0.00000000000000 ]
      - [ -0.00000000000002,  0.00000000000000 ]
      - [ -0.70079353920995,  0.09427839307915 ]
  - # 2
    frequency:    2.6142831913
    eigenvector:
    - # atom 1
      - [  0.33443150474976,  0.00000000000000 ]
      - [  0.62205370125700, -0.03470967276246 ]
      - [ -0.00000000000002,  0.00000000000000 ]
    - # atom 2
      - [  0.33333017525416, -0.02711873216465 ]
      - [  0.62281976613573, -0.01584637313239 ]
      - [ -0.00000000000002,  0.00000000000000 ]
  - # 3
    frequency:    4.6810980182
    eigenvector:
    - # atom 1
      - [  0.62301835616090,  0.00000000000000 ]
      - [ -0.33390401388438,  0.01887425226272 ]
      - [  0.00000000000000, -0.00000000000000 ]
    - # atom 2
      - [  0.62285050988669, -0.01446078999629 ]
      - [ -0.33425214496509, -0.01111896905342 ]
      - [  0.00000000000000, -0.00000000000000 ]
  - # 4
    frequency:   24.7352171171
    eigenvector:
    - # atom 1
      - [ -0.00000000000000,  0.00000000000000 ]
      - [  0.00000000000000,  0.00000000000000 ]
      - [ -0.70678407541985, -0.02136049467854 ]
    - # atom 2
      - [  0.00000000000000,  0.00000000000000 ]
      - [  0.00000000000000,  0.00000000000000 ]
      - [  0.70696175844597,  0.01432033850777 ]
  - # 5
    frequency:   51.8487272403
    eigenvector:
    - # atom 1
      - [  0.20183446276693, -0.00000000000000 ]
      - [  0.67563578384673, -0.05271752294449 ]
      - [ -0.00000000000000,  0.00000000000000 ]
    - # atom 2
      - [ -0.20039903159361,  0.02402870152048 ]
      - [ -0.67710681586829,  0.02809287354988 ]
      - [  0.00000000000000, -0.00000000000000 ]
  - # 6
    frequency:   52.1252318287
    eigenvector:
    - # atom 1
      - [ -0.67769207325818,  0.00000000000000 ]
      - [  0.20123093708908, -0.01547784872901 ]
      - [  0.00000000000000,  0.00000000000000 ]
    - # atom 2
      - [  0.67741087748672, -0.01952048205467 ]
      - [ -0.20159326946606, -0.00967509943168 ]
      - [ -0.00000000000000,  0.00000000000000 ]

- q-position: [    0.0600000,    0.0300000,    0.0000000 ]
  distance:    0.0129093
  band:
  - # 1
    frequency:    0.6570614877
    eigenvector:
    - # atom 1
      - [ -0.00000000000000,  0.00000000000000 ]
      - [ -0.00000000000000,  0.00000000000000 ]
      - [ -0.69302728275051, -0.14040365153172 ]
    - # atom 2
      - [ -0.00000000000000,  0.00000000000000 ]
      - [ -0.00000000000000,  0.00000000000000 ]
      - [ -0.69452599383330, -0.13279173125562 ]
  - # 2
    frequency:    2.9441181530
    eigenvector:
    - # atom 1
      - [  0.33467641985154,  0.00000000000000 ]
      - [  0.62166482075412, -0.03904541755581 ]
      - [ -0.00000000000000, -0.00000000000000 ]
    - # atom 2
      - [  0.33327976954579, -0.03054343163674 ]
      - [  0.62263391406523, -0.01785225619271 ]
      - [ -0.00000000000000, -0.00000000000000 ]
  - # 3
    frequency:    5.2625858503
    eigenvector:
    - # atom 1
      - [  0.62288520793675,  0.00000000000000 ]
      - [ -0.33400573256434,  0.02131169509326 ]
      - [  0.00000000000000,  0.00000000000000 ]
    - # atom 2
      - [  0.62266922420786, -0.01640181364344 ]
      - [ -0.33445109656435, -0.01250926618521 ]
      - [  0.00000000000000,  0.00000000000000 ]
  - # 4
    frequency:   24.7260900375
    eigenvector:
    - # atom 1
      - [ -0.00000000000000,  0.00000000000000 ]
      - [ -0.00000000000000, -0.00000000000000 ]
      - [ -0.70651626580041, -0.02889232007726 ]
    - # atom 2
      - [  0.00000000000000,  0.00000000000000 ]
      - [ -0.00000000000000, -0.00000000000000 ]
      - [  0.70679073116944,  0.02113911854754 ]
  - # 5
    frequency:   51.8103065533
    eigenvector:
    - # atom 1
      - [  0.22503062736729, -0.00000000000000 ]
      - [  0.66808681481211, -0.05496566765619 ]
      - [ -0.00000000000000, -0.00000000000000 ]
    - # atom 2
      - [ -0.22329728515169,  0.02787661559802 ]
      - [ -0.66974984936399,  0.02821978071492 ]
      - [  0.00000000000000, -0.00000000000000 ]
  - # 6
    frequency:   52.1256813240
    eigenvector:
    - # atom 1
      - [ -0.67034836352126,  0.00000000000000 ]
      - [  0.22428535613998, -0.01814250659462 ]
      - [  0.00000000000000,  0.00000000000000 ]
    - # atom 2
      - [  0.67001521231538, -0.02113158161630 ]
      - [ -0.22474580169152, -0.01106327918868 ]
      - [ -0.00000000000000,  0.00000000000000 ]

- q-position: [    0.0666667,    0.0333333,    0.0000000 ]
  distance:    0.0143437
  band:
  - # 1
    frequency:    0.7309393437
    eigenvector:
    - # atom 1
      - [  0.00000000000000,  0.00000000000000 ]
      - [  0.00000000000001, -0.00000000000000 ]
      - [ -0.70613978979783, -0.03696751633894 ]
    - # atom 2
      - [  0.00000000000000, -0.00000000000000 ]
      - [  0.00000000000001, -0.00000000000000 ]
      - [ -0.70652983652553, -0.02855853811399 ]
  - # 2
    frequency:    3.2749764636
    eigenvector:
    - # atom 1
      - [  0.33494915178085,  0.00000000000000 ]
      - [  0.62123038196249, -0.04338062065048 ]
      - [  0.00000000000001,  0.00000000000000 ]
    - # atom 2
      - [  0.33322103032000, -0.03398057137828 ]
      - [  0.62242619547362, -0.01986698038248 ]
      - [  0.00000000000001,  0.00000000000000 ]
  - # 3
    frequency:    5.8427754813
    eigenvector:
    - # atom 1
      - [  0.62273637015281,  0.00000000000000 ]
      - [ -0.33411685642585,  0.02377686987410 ]
      - [ -0.00000000000000, -0.00000000000000 ]
    - # atom 2
      - [  0.62246480181856, -0.01838905130998 ]
      - [ -0.33467326928138, -0.01390022004910 ]
      - [ -0.00000000000000, -0.00000000000000 ]
  - # 4
    frequency:   24.7158087164
    eigenvector:
    - # atom 1
      - [ -0.00000000000000,  0.00000000000000 ]
      - [ -0.00000000000000,  0.00000000000000 ]
      - [ -0.70657101874093, -0.02752081894499 ]
    - # atom 2
      - [  0.00000000000000,  0.00000000000000 ]
      - [  0.00000000000000,  0.00000000000000 ]
      - [  0.70684857512984,  0.01910737650515 ]
  - # 5
    frequency:   51.7668689621
    eigenvector:
    - # atom 1
      - [  0.24448310458675, -0.00000000000000 ]
      - [  0.66099152240892, -0.05760398315366 ]
      - [ -0.00000000000000,  0.00000000000000 ]
    - # atom 2
      - [ -0.24240890647388,  0.03177908888740 ]
      - [ -0.66287130356305,  0.02880358457300 ]
      - [  0.00000000000000, -0.00000000000000 ]
  - # 6
    frequency:   52.1264696950
    eigenvector:
    - # atom 1
      - [ -0.66350319560784,  0.00000000000000 ]
      - [  0.24357852636614, -0.02080891423127 ]
      - [  0.00000000000000,  0.00000000000000 ]
    - # atom 2
      - [  0.66311465200454, -0.02270349926135 ]
      - [ -0.24414791969094, -0.01246205154755 ]
      - [ -0.00000000000000,  0.00000000000000 ]

- q-position: [    0.0733333,    0.0366667,    0.0000000 ]
  distance:    0.0157781
  band:
  - # 1
    frequency:    0.8051401809
    eigenvector:
    - # atom 1
      - [  0.00000000000000,  0.00000000000000 ]
      - [  0.00000000000001, -0.00000000000000 ]
      - [ -0.70678238221463,  0.02141644674096 ]
    - # atom 2
      - [  0.00000000000000, -0.00000000000000 ]
      - [  0.00000000000001, -0.00000000000000 ]
      - [ -0.70645180290539,  0.03042778617846 ]
  - # 2
    frequency:    3.6069431891
    eigenvector:
    - # atom 1
      - [  0.33524937718137,  0.00000000000000 ]
      - [  0.62075042248436, -0.04771549103790 ]
      - [  0.00000000000001, -0.00000000000000 ]
    - # atom 2
      - [  0.33315314797466, -0.03743160289209 ]
      - [  0.62219660607080, -0.02189151647290 ]
      - [  0.00000000000001, -0.00000000000000 ]
  - # 3
    frequency:    6.4215172517
    eigenvector:
    - # atom 1
      - [  0.62257183017216,  0.00000000000000 ]
      - [ -0.33423651672128,  0.02627293600107 ]
      - [ -0.00000000000000,  0.00000000000000 ]
    - # atom 2
      - [  0.62223662283682, -0.02042716144113 ]
      - [ -0.33491859540281, -0.01529217870345 ]
      - [ -0.00000000000000,  0.00000000000000 ]
  - # 4
    frequency:   24.7043468809
    eigenvector:
    - # atom 1
      - [ -0.00000000000000,  0.00000000000000 ]
      - [ -0.00000000000000,  0.00000000000000 ]
      - [ -0.70633474357912, -0.03303377079619 ]
    - # atom 2
      - [  0.00000000000000,  0.00000000000000 ]
      - [ -0.00000000000000,  0.00000000000000 ]
      - [  0.70669856463044,  0.02402371222923 ]
  - # 5
    frequency:   51.7185416680
    eigenvector:
    - # atom 1
      - [  0.26065175354371, -0.00000000000000 ]
      - [  0.65451826955139, -0.06055161598212 ]
      - [ -0.00000000000000,  0.00000000000000 ]
    - # atom 2
      - [ -0.25819209105227,  0.03572367203227 ]
      - [ -0.65664076450976,  0.02972490132228 ]
      - [  0.00000000000000, -0.00000000000000 ]
  - # 6
    frequency:   52.1274045004
    eigenvector:
    - # atom 1
      - [ -0.65732247394272,  0.00000000000000 ]
      - [  0.25957014105873, -0.02346288815491 ]
      - [ -0.00000000000000, -0.00000000000000 ]
    - # atom 2
      - [  0.65687417405709, -0.02427249898541 ]
      - [ -0.26025950994896, -0.01386191656829 ]
      - [ -0.00000000000000,  0.00000000000000 ]

- q-position: [    0.0800000,    0.0400000,    0.0000000 ]
  distance:    0.0172124
  band:
  - # 1
    frequency:    0.8797200534
    eigenvector:
    - # atom 1
      - [  0.00000000000000,  0.00000000000000 ]
      - [  0.00000000000000, -0.00000000000000 ]
      - [ -0.69672960053387, -0.12069740568842 ]
    - # atom 2
      - [  0.00000000000000, -0.00000000000000 ]
      - [  0.00000000000000,  0.00000000000000 ]
      - [ -0.69829639707190, -0.11127507284384 ]
  - # 2
    frequency:    3.9400949409
    eigenvector:
    - # atom 1
      - [  0.33557674144567,  0.00000000000000 ]
      - [  0.62022497151791, -0.05205031514132 ]