32   
2    

1    
  0.0076451214987595  -0.0044139129431864   0.0179462945980271
  -0.3563332290    0.1635780960   -0.1218892554
  -0.0511266979   -0.0123568324   -0.0043643414
  -0.0658926202   -0.0005314014    0.0005461123
  -0.0501451105   -0.0101934005   -0.0041582319
  -0.0646638558    0.0180263511   -0.0042699617
  -0.0634961153    0.0000686570    0.0004471906
  -0.0669485805    0.0000021030    0.0004590840
  -0.0780417033   -0.0107895417   -0.0042833893
  -0.0670528786    0.0014623342    0.0005399297
  -0.0678133308   -0.0013807020    0.0004558741
  -0.0682256835   -0.0005382538    0.0005523502
  -0.0678193987   -0.0013867330    0.0004558471
  -0.0658717209    0.0159145427   -0.0041663941
  -0.0769112917   -0.0088390936   -0.0043856257
  -0.0669369348    0.0000153727    0.0004617846
  -0.0634938140    0.0000720563    0.0004446030
   0.1989166360   -0.0241154626    0.0522893939
   0.0658246544   -0.0036647498   -0.0050518899
   0.0662244976    0.0028487941   -0.0050800589
   0.1540635070   -0.1017184530    0.0542136132
   0.0648138960    0.0008056890   -0.0050452142
   0.0647079691    0.0010160078    0.0025363283
   0.0668080300    0.0041860144   -0.0050662311
   0.0759993072   -0.0054952784    0.0037572590
   0.0681993736   -0.0005671309   -0.0050713990
   0.0697516683   -0.0036607673   -0.0050643650
   0.0661537928    0.0004479922   -0.0000863153
   0.0678627704   -0.0023760674   -0.0000844447
   0.1104696560   -0.0221010959    0.0534501282
   0.0700374474    0.0049167289    0.0037535950
   0.0670141491    0.0018092447   -0.0000875540
   0.0639256096   -0.0054550203    0.0037915783

1    
 -0.0076451214987595   0.0044139129431864  -0.0179462945980271
   0.2204651795   -0.1674673379    0.1219086708
  -0.0840416847    0.0093594984    0.0041577158
  -0.0677609592    0.0005451959   -0.0005462424
  -0.0854246609    0.0074283851    0.0043638082
  -0.0706296833   -0.0150978262    0.0042519514
  -0.0667932443   -0.0000752809   -0.0004539746
  -0.0684497554    0.0029168430   -0.0004527759
  -0.0522907817    0.0108776350    0.0043006075
  -0.0665944288   -0.0014911984   -0.0005522734
  -0.0675770141   -0.0015374899   -0.0004560462
  -0.0654672834    0.0005359663   -0.0005403807
  -0.0675613840   -0.0015146784   -0.0004560586
  -0.0694998707   -0.0131296562    0.0043544066
  -0.0535076293    0.0087895783    0.0041973341
  -0.0684571079    0.0029050662   -0.0004501230
  -0.0667967515   -0.0000739697   -0.0004566177
  -0.0662291311    0.0244277453   -0.0538559673
   0.0697855321    0.0009183023    0.0050558815
   0.0642564730   -0.0028653586    0.0050759111
  -0.0192976856    0.1010706061   -0.0526606966
   0.0707900826    0.0019081102    0.0050627322
   0.0682878509   -0.0010309996   -0.0025364943
   0.0688052052   -0.0014778213    0.0050484111
   0.0569869611    0.0054586643   -0.0037579453
   0.0622883777    0.0005371324    0.0050849165
   0.0658432560    0.0009140507    0.0050504593
   0.0643633146   -0.0004588490    0.0000798574
   0.0677342283   -0.0003362306    0.0000905424
   0.0261147020    0.0265070586   -0.0534493570
   0.0630336586   -0.0049362389   -0.0037617115
   0.0685910693    0.0008954261    0.0000873416
   0.0690331659    0.0054976710   -0.0037838830
