phonopy:
  version: "2.40.0"
  calculator: siesta
  frequency_unit_conversion_factor: 21.490680
  symmetry_tolerance: 1.00000e-05
  configuration:
    dim: "4 4 1"
    mp: "20 20 3"
    tprop: ".true."

physical_unit:
  atomic_mass: "AMU"
  length: "au"
  force: "eV/angstrom"
  force_constants: "eV/angstrom.au"

space_group:
  type: "Cmmm"
  number: 65
  Hall_symbol: "-C 2 2"

supercell_matrix:
- [   4,   0,   0 ]
- [   0,   4,   0 ]
- [   0,   0,   1 ]

primitive_cell:
  lattice:
  - [     4.025116671915840,    -2.323902187674509,     0.000000000000000 ] # a
  - [     4.025116671915840,     2.323902187674509,     0.000000000000000 ] # b
  - [     0.000000000000000,     0.000000000000000,    37.794522740993806 ] # c
  points:
  - symbol: C # 1
    coordinates: [  0.000000000000000,  0.000000000000000,  0.000000000000000 ]
    mass: 12.010700
  - symbol: C # 2
    coordinates: [  0.333098591549296,  0.333098591549296,  0.000000000000000 ]
    mass: 12.010700
  reciprocal_lattice: # without 2pi
  - [     0.124220001742711,    -0.215155354924960,     0.000000000000000 ] # a*
  - [     0.124220001742711,     0.215155354924960,     0.000000000000000 ] # b*
  - [     0.000000000000000,     0.000000000000000,     0.026458860371197 ] # c*

unit_cell:
  lattice:
  - [     4.025116671915840,    -2.323902187674509,     0.000000000000000 ] # a
  - [     4.025116671915840,     2.323902187674509,     0.000000000000000 ] # b
  - [     0.000000000000000,     0.000000000000000,    37.794522740993806 ] # c
  points:
  - symbol: C # 1
    coordinates: [  0.000000000000000,  0.000000000000000,  0.000000000000000 ]
    mass: 12.010700
    reduced_to: 1
  - symbol: C # 2
    coordinates: [  0.333098591549296,  0.333098591549296,  0.000000000000000 ]
    mass: 12.010700
    reduced_to: 2

supercell:
  lattice:
  - [    16.100466687663360,    -9.295608750698037,     0.000000000000000 ] # a
  - [    16.100466687663360,     9.295608750698037,     0.000000000000000 ] # b
  - [     0.000000000000000,     0.000000000000000,    37.794522740993806 ] # c
  points:
  - symbol: C # 1
    coordinates: [  0.000000000000000,  0.000000000000000,  0.000000000000000 ]
    mass: 12.010700
    reduced_to: 1
  - symbol: C # 2
    coordinates: [  0.250000000000000,  0.000000000000000,  0.000000000000000 ]
    mass: 12.010700
    reduced_to: 1
  - symbol: C # 3
    coordinates: [  0.500000000000000,  0.000000000000000,  0.000000000000000 ]
    mass: 12.010700
    reduced_to: 1
  - symbol: C # 4
    coordinates: [  0.750000000000000,  0.000000000000000,  0.000000000000000 ]
    mass: 12.010700
    reduced_to: 1
  - symbol: C # 5
    coordinates: [  0.000000000000000,  0.250000000000000,  0.000000000000000 ]
    mass: 12.010700
    reduced_to: 1
  - symbol: C # 6
    coordinates: [  0.250000000000000,  0.250000000000000,  0.000000000000000 ]
    mass: 12.010700
    reduced_to: 1
  - symbol: C # 7
    coordinates: [  0.500000000000000,  0.250000000000000,  0.000000000000000 ]
    mass: 12.010700
    reduced_to: 1
  - symbol: C # 8
    coordinates: [  0.750000000000000,  0.250000000000000,  0.000000000000000 ]
    mass: 12.010700
    reduced_to: 1
  - symbol: C # 9
    coordinates: [  0.000000000000000,  0.500000000000000,  0.000000000000000 ]
    mass: 12.010700
    reduced_to: 1
  - symbol: C # 10
    coordinates: [  0.250000000000000,  0.500000000000000,  0.000000000000000 ]
    mass: 12.010700
    reduced_to: 1
  - symbol: C # 11
    coordinates: [  0.500000000000000,  0.500000000000000,  0.000000000000000 ]
    mass: 12.010700
    reduced_to: 1
  - symbol: C # 12
    coordinates: [  0.750000000000000,  0.500000000000000,  0.000000000000000 ]
    mass: 12.010700
    reduced_to: 1
  - symbol: C # 13
    coordinates: [  0.000000000000000,  0.750000000000000,  0.000000000000000 ]
    mass: 12.010700
    reduced_to: 1
  - symbol: C # 14
    coordinates: [  0.250000000000000,  0.750000000000000,  0.000000000000000 ]
    mass: 12.010700
    reduced_to: 1
  - symbol: C # 15
    coordinates: [  0.500000000000000,  0.750000000000000,  0.000000000000000 ]
    mass: 12.010700
    reduced_to: 1
  - symbol: C # 16
    coordinates: [  0.750000000000000,  0.750000000000000,  0.000000000000000 ]
    mass: 12.010700
    reduced_to: 1
  - symbol: C # 17
    coordinates: [  0.083274647887324,  0.083274647887324,  0.000000000000000 ]
    mass: 12.010700
    reduced_to: 17
  - symbol: C # 18
    coordinates: [  0.333274647887324,  0.083274647887324,  0.000000000000000 ]
    mass: 12.010700
    reduced_to: 17
  - symbol: C # 19
    coordinates: [  0.583274647887324,  0.083274647887324,  0.000000000000000 ]
    mass: 12.010700
    reduced_to: 17
  - symbol: C # 20
    coordinates: [  0.833274647887324,  0.083274647887324,  0.000000000000000 ]
    mass: 12.010700
    reduced_to: 17
  - symbol: C # 21
    coordinates: [  0.083274647887324,  0.333274647887324,  0.000000000000000 ]
    mass: 12.010700
    reduced_to: 17
  - symbol: C # 22
    coordinates: [  0.333274647887324,  0.333274647887324,  0.000000000000000 ]
    mass: 12.010700
    reduced_to: 17
  - symbol: C # 23
    coordinates: [  0.583274647887324,  0.333274647887324,  0.000000000000000 ]
    mass: 12.010700
    reduced_to: 17
  - symbol: C # 24
    coordinates: [  0.833274647887324,  0.333274647887324,  0.000000000000000 ]
    mass: 12.010700
    reduced_to: 17
  - symbol: C # 25
    coordinates: [  0.083274647887324,  0.583274647887324,  0.000000000000000 ]
    mass: 12.010700
    reduced_to: 17
  - symbol: C # 26
    coordinates: [  0.333274647887324,  0.583274647887324,  0.000000000000000 ]
    mass: 12.010700
    reduced_to: 17
  - symbol: C # 27
    coordinates: [  0.583274647887324,  0.583274647887324,  0.000000000000000 ]
    mass: 12.010700
    reduced_to: 17
  - symbol: C # 28
    coordinates: [  0.833274647887324,  0.583274647887324,  0.000000000000000 ]
    mass: 12.010700
    reduced_to: 17
  - symbol: C # 29
    coordinates: [  0.083274647887324,  0.833274647887324,  0.000000000000000 ]
    mass: 12.010700
    reduced_to: 17
  - symbol: C # 30
    coordinates: [  0.333274647887324,  0.833274647887324,  0.000000000000000 ]
    mass: 12.010700
    reduced_to: 17
  - symbol: C # 31
    coordinates: [  0.583274647887324,  0.833274647887324,  0.000000000000000 ]
    mass: 12.010700
    reduced_to: 17
  - symbol: C # 32
    coordinates: [  0.833274647887324,  0.833274647887324,  0.000000000000000 ]
    mass: 12.010700
    reduced_to: 17
