# Thermal properties / unit cell (natom)

unit:
  temperature:   K
  free_energy:   kJ/mol
  entropy:       J/K/mol
  heat_capacity: J/K/mol

natom: 2    
cutoff_frequency: 0.00000
num_modes: 7200
num_integrated_modes: 7146

zero_point_energy:      34.0733745

thermal_properties:
- temperature:         0.0000000
  free_energy:        34.0733745
  entropy:             0.0000000
  heat_capacity:       0.0000000
  energy:             34.0733745

- temperature:        10.0000000
  free_energy:        34.0726022
  entropy:             0.1836026
  heat_capacity:       0.2201533
  energy:             34.0744382

- temperature:        20.0000000
  free_energy:        34.0696506
  entropy:             0.4095451
  heat_capacity:       0.4726539
  energy:             34.0778415

- temperature:        30.0000000
  free_energy:        34.0643282
  entropy:             0.6595349
  heat_capacity:       0.7909899
  energy:             34.0841142

- temperature:        40.0000000
  free_energy:        34.0563721
  entropy:             0.9357285
  heat_capacity:       1.1518521
  energy:             34.0938013

- temperature:        50.0000000
  free_energy:        34.0455398
  entropy:             1.2341122
  heat_capacity:       1.5413511
  energy:             34.1072454

- temperature:        60.0000000
  free_energy:        34.0316267
  entropy:             1.5514867
  heat_capacity:       1.9572667
  energy:             34.1247160

- temperature:        70.0000000
  free_energy:        34.0144525
  entropy:             1.8861784
  heat_capacity:       2.4014429
  energy:             34.1464849

- temperature:        80.0000000
  free_energy:        33.9938479
  entropy:             2.2374848
  heat_capacity:       2.8761398
  energy:             34.1728466

- temperature:        90.0000000
  free_energy:        33.9696481
  entropy:             2.6051857
  heat_capacity:       3.3829344
  energy:             34.2041148

- temperature:       100.0000000
  free_energy:        33.9416896
  entropy:             2.9892480
  heat_capacity:       3.9224143
  energy:             34.2406144

- temperature:       110.0000000
  free_energy:        33.9098087
  entropy:             3.3896511
  heat_capacity:       4.4940092
  energy:             34.2826703

- temperature:       120.0000000
  free_energy:        33.8738425
  entropy:             3.8062774
  heat_capacity:       5.0959199
  energy:             34.3305958

- temperature:       130.0000000
  free_energy:        33.8336300
  entropy:             4.2388470
  heat_capacity:       5.7252137
  energy:             34.3846801

- temperature:       140.0000000
  free_energy:        33.7890139
  entropy:             4.6868910
  heat_capacity:       6.3780830
  energy:             34.4451787

- temperature:       150.0000000
  free_energy:        33.7398427
  entropy:             5.1497544
  heat_capacity:       7.0501943
  energy:             34.5123059

- temperature:       160.0000000
  free_energy:        33.6859722
  entropy:             5.6266221
  heat_capacity:       7.7370476
  energy:             34.5862317

- temperature:       170.0000000
  free_energy:        33.6272667
  entropy:             6.1165570
  heat_capacity:       8.4342830
  energy:             34.6670814

- temperature:       180.0000000
  free_energy:        33.5636008
  entropy:             6.6185430
  heat_capacity:       9.1379058
  energy:             34.7549386

- temperature:       190.0000000
  free_energy:        33.4948592
  entropy:             7.1315258
  heat_capacity:       9.8444230
  energy:             34.8498491

- temperature:       200.0000000
  free_energy:        33.4209372
  entropy:             7.6544483
  heat_capacity:      10.5509017
  energy:             34.9518269

- temperature:       210.0000000
  free_energy:        33.3417406
  entropy:             8.1862786
  heat_capacity:      11.2549689
  energy:             35.0608591

- temperature:       220.0000000
  free_energy:        33.2571852
  entropy:             8.7260306
  heat_capacity:      11.9547695
  energy:             35.1769120

- temperature:       230.0000000
  free_energy:        33.1671966
  entropy:             9.2727777
  heat_capacity:      12.6489005
  energy:             35.2999355

- temperature:       240.0000000
  free_energy:        33.0717092
  entropy:             9.8256599
  heat_capacity:      13.3363359
  energy:             35.4298676

- temperature:       250.0000000
  free_energy:        32.9706656
  entropy:            10.3838873
  heat_capacity:      14.0163503
  energy:             35.5666375

- temperature:       260.0000000
  free_energy:        32.8640161
  entropy:            10.9467390
  heat_capacity:      14.6884482
  energy:             35.7101682

- temperature:       270.0000000
  free_energy:        32.7517176
  entropy:            11.5135604
  heat_capacity:      15.3523029
  energy:             35.8603789

- temperature:       280.0000000
  free_energy:        32.6337336
  entropy:            12.0837588
  heat_capacity:      16.0077050
  energy:             36.0171861

- temperature:       290.0000000
  free_energy:        32.5100330
  entropy:            12.6567980
  heat_capacity:      16.6545220
  energy:             36.1805044

- temperature:       300.0000000
  free_energy:        32.3805898
  entropy:            13.2321927
  heat_capacity:      17.2926679
  energy:             36.3502476

- temperature:       310.0000000
  free_energy:        32.2453828
  entropy:            13.8095029
  heat_capacity:      17.9220808
  energy:             36.5263287

- temperature:       320.0000000
  free_energy:        32.1043947
  entropy:            14.3883289
  heat_capacity:      18.5427075
  energy:             36.7086600

- temperature:       330.0000000
  free_energy:        31.9576123
  entropy:            14.9683061
  heat_capacity:      19.1544940
  energy:             36.8971533

- temperature:       340.0000000
  free_energy:        31.8050259
  entropy:            15.5491009
  heat_capacity:      19.7573806
  energy:             37.0917202

- temperature:       350.0000000
  free_energy:        31.6466286
  entropy:            16.1304070
  heat_capacity:      20.3512994
  energy:             37.2922711

- temperature:       360.0000000
  free_energy:        31.4824170
  entropy:            16.7119418
  heat_capacity:      20.9361749
  energy:             37.4987160

- temperature:       370.0000000
  free_energy:        31.3123899
  entropy:            17.2934439
  heat_capacity:      21.5119252
  energy:             37.7109642

- temperature:       380.0000000
  free_energy:        31.1365490
  entropy:            17.8746706
  heat_capacity:      22.0784649
  energy:             37.9289238

- temperature:       390.0000000
  free_energy:        30.9548982
  entropy:            18.4553956
  heat_capacity:      22.6357078
  energy:             38.1525025

- temperature:       400.0000000
  free_energy:        30.7674435
  entropy:            19.0354081
  heat_capacity:      23.1835701
  energy:             38.3816067

- temperature:       410.0000000
  free_energy:        30.5741930
  entropy:            19.6145105
  heat_capacity:      23.7219730
  energy:             38.6161423

- temperature:       420.0000000
  free_energy:        30.3751569
  entropy:            20.1925178
  heat_capacity:      24.2508455
  energy:             38.8560144

- temperature:       430.0000000
  free_energy:        30.1703469
  entropy:            20.7692566
  heat_capacity:      24.7701264
  energy:             39.1011273

- temperature:       440.0000000
  free_energy:        29.9597765
  entropy:            21.3445642
  heat_capacity:      25.2797664
  energy:             39.3513848

- temperature:       450.0000000
  free_energy:        29.7434609
  entropy:            21.9182876
  heat_capacity:      25.7797292
  energy:             39.6066903

- temperature:       460.0000000
  free_energy:        29.5214166
  entropy:            22.4902836
  heat_capacity:      26.2699925
  energy:             39.8669470

- temperature:       470.0000000
  free_energy:        29.2936614
  entropy:            23.0604178
  heat_capacity:      26.7505487
  energy:             40.1320578

- temperature:       480.0000000
  free_energy:        29.0602148
  entropy:            23.6285643
  heat_capacity:      27.2214052
  energy:             40.4019257

- temperature:       490.0000000
  free_energy:        28.8210972
  entropy:            24.1946051
  heat_capacity:      27.6825842
  energy:             40.6764537

- temperature:       500.0000000
  free_energy:        28.5763301
  entropy:            24.7584302
  heat_capacity:      28.1341225
  energy:             40.9555452

- temperature:       510.0000000
  free_energy:        28.3259363
  entropy:            25.3199370
  heat_capacity:      28.5760713
  energy:             41.2391042

- temperature:       520.0000000
  free_energy:        28.0699394
  entropy:            25.8790298
  heat_capacity:      29.0084951
  energy:             41.5270349

- temperature:       530.0000000
  free_energy:        27.8083640
  entropy:            26.4356198
  heat_capacity:      29.4314714
  energy:             41.8192426

- temperature:       540.0000000
  free_energy:        27.5412356
  entropy:            26.9896250
  heat_capacity:      29.8450893
  energy:             42.1156331

- temperature:       550.0000000
  free_energy:        27.2685804
  entropy:            27.5409692
  heat_capacity:      30.2494495
  energy:             42.4161135

- temperature:       560.0000000
  free_energy:        26.9904254
  entropy:            28.0895826
  heat_capacity:      30.6446624
  energy:             42.7205916

- temperature:       570.0000000
  free_energy:        26.7067981
  entropy:            28.6354010
  heat_capacity:      31.0308476
  energy:             43.0289766

- temperature:       580.0000000
  free_energy:        26.4177268
  entropy:            29.1783656
  heat_capacity:      31.4081332
  energy:             43.3411789

- temperature:       590.0000000
  free_energy:        26.1232405
  entropy:            29.7184231
  heat_capacity:      31.7766542
  energy:             43.6571101

- temperature:       600.0000000
  free_energy:        25.8233682
  entropy:            30.2555250
  heat_capacity:      32.1365523
  energy:             43.9766832

- temperature:       610.0000000
  free_energy:        25.5181400
  entropy:            30.7896277
  heat_capacity:      32.4879744
  energy:             44.2998129

- temperature:       620.0000000
  free_energy:        25.2075858
  entropy:            31.3206922
  heat_capacity:      32.8310722
  energy:             44.6264150

- temperature:       630.0000000
  free_energy:        24.8917364
  entropy:            31.8486837
  heat_capacity:      33.1660013
  energy:             44.9564071

- temperature:       640.0000000
  free_energy:        24.5706225
  entropy:            32.3735716
  heat_capacity:      33.4929202
  energy:             45.2897083

- temperature:       650.0000000
  free_energy:        24.2442754
  entropy:            32.8953292
  heat_capacity:      33.8119902
  energy:             45.6262393

- temperature:       660.0000000
  free_energy:        23.9127264
  entropy:            33.4139335
  heat_capacity:      34.1233740
  energy:             45.9659225

- temperature:       670.0000000
  free_energy:        23.5760073
  entropy:            33.9293649
  heat_capacity:      34.4272357
  energy:             46.3086817

- temperature:       680.0000000
  free_energy:        23.2341497
  entropy:            34.4416073
  heat_capacity:      34.7237400
  energy:             46.6544427

- temperature:       690.0000000
  free_energy:        22.8871858
  entropy:            34.9506475
  heat_capacity:      35.0130517
  energy:             47.0031326

- temperature:       700.0000000
  free_energy:        22.5351475
  entropy:            35.4564754
  heat_capacity:      35.2953354
  energy:             47.3546803

- temperature:       710.0000000
  free_energy:        22.1780670
  entropy:            35.9590836
  heat_capacity:      35.5707551
  energy:             47.7090164

- temperature:       720.0000000
  free_energy:        21.8159766
  entropy:            36.4584673
  heat_capacity:      35.8394735
  energy:             48.0660731

- temperature:       730.0000000
  free_energy:        21.4489084
  entropy:            36.9546242
  heat_capacity:      36.1016521
  energy:             48.4257841

- temperature:       740.0000000
  free_energy:        21.0768949
  entropy:            37.4475540
  heat_capacity:      36.3574507
  energy:             48.7880848

- temperature:       750.0000000
  free_energy:        20.6999681
  entropy:            37.9372590
  heat_capacity:      36.6070272
  energy:             49.1529123

- temperature:       760.0000000
  free_energy:        20.3181604
  entropy:            38.4237431
  heat_capacity:      36.8505373
  energy:             49.5202052

- temperature:       770.0000000
  free_energy:        19.9315040
  entropy:            38.9070122
  heat_capacity:      37.0881346
  energy:             49.8899034

- temperature:       780.0000000
  free_energy:        19.5400309
  entropy:            39.3870741
  heat_capacity:      37.3199699
  energy:             50.2619486

- temperature:       790.0000000
  free_energy:        19.1437731
  entropy:            39.8639379
  heat_capacity:      37.5461917
  energy:             50.6362841

- temperature:       800.0000000
  free_energy:        18.7427627
  entropy:            40.3376144
  heat_capacity:      37.7669455
  energy:             51.0128542

- temperature:       810.0000000
  free_energy:        18.3370314
  entropy:            40.8081158
  heat_capacity:      37.9823742
  energy:             51.3916052

- temperature:       820.0000000
  free_energy:        17.9266109
  entropy:            41.2754555
  heat_capacity:      38.1926178
  energy:             51.7724844

- temperature:       830.0000000
  free_energy:        17.5115328
  entropy:            41.7396481
  heat_capacity:      38.3978131
  energy:             52.1554408

- temperature:       840.0000000
  free_energy:        17.0918284
  entropy:            42.2007094
  heat_capacity:      38.5980942
  energy:             52.5404243

- temperature:       850.0000000
  free_energy:        16.6675290
  entropy:            42.6586561
  heat_capacity:      38.7935919
  energy:             52.9273867

- temperature:       860.0000000
  free_energy:        16.2386656
  entropy:            43.1135059
  heat_capacity:      38.9844343
  energy:             53.3162807

- temperature:       870.0000000
  free_energy:        15.8052691
  entropy:            43.5652772
  heat_capacity:      39.1707462
  energy:             53.7070603

- temperature:       880.0000000
  free_energy:        15.3673703
  entropy:            44.0139893
  heat_capacity:      39.3526493
  energy:             54.0996809

- temperature:       890.0000000
  free_energy:        14.9249995
  entropy:            44.4596623
  heat_capacity:      39.5302625
  energy:             54.4940990

- temperature:       900.0000000
  free_energy:        14.4781871
  entropy:            44.9023168
  heat_capacity:      39.7037016
  energy:             54.8902722

- temperature:       910.0000000
  free_energy:        14.0269631
  entropy:            45.3419740
  heat_capacity:      39.8730794
  energy:             55.2881595

- temperature:       920.0000000
  free_energy:        13.5713575
  entropy:            45.7786556
  heat_capacity:      40.0385057
  energy:             55.6877206

- temperature:       930.0000000
  free_energy:        13.1113999
  entropy:            46.2123837
  heat_capacity:      40.2000876
  energy:             56.0889168

- temperature:       940.0000000
  free_energy:        12.6471196
  entropy:            46.6431812
  heat_capacity:      40.3579290
  energy:             56.4917099

- temperature:       950.0000000
  free_energy:        12.1785459
  entropy:            47.0710708
  heat_capacity:      40.5121313
  energy:             56.8960632

- temperature:       960.0000000
  free_energy:        11.7057078
  entropy:            47.4960760
  heat_capacity:      40.6627930
  energy:             57.3019407

- temperature:       970.0000000
  free_energy:        11.2286340
  entropy:            47.9182202
  heat_capacity:      40.8100099
  energy:             57.7093076

- temperature:       980.0000000
  free_energy:        10.7473529
  entropy:            48.3375274
  heat_capacity:      40.9538750
  energy:             58.1181298

- temperature:       990.0000000
  free_energy:        10.2618928
  entropy:            48.7540216
  heat_capacity:      41.0944788
  energy:             58.5283742

- temperature:      1000.0000000
  free_energy:         9.7722817
  entropy:            49.1677270
  heat_capacity:      41.2319095
  energy:             58.9400088
