Executable      : siesta
Version         : 5.2.1
Architecture    : x86_64
Compiler version: GNU-13.3.0
Compiler flags  : -march=nocona -mtune=haswell -ftree-vectorize -fPIC -fstack-protector-strong -fno-plt -O2 -ffunction-sections -pipe -isystem <prefix>/include -I<prefix>/_build_env/include -fdebug-prefix-map=<prefix>/work=/usr/local/src/conda/siesta-5.2.1 -fdebug-prefix-map=<prefix>=/usr/local/src/conda-prefix -I<prefix>/lib -fallow-argument-mismatch -O3
Parallelisations: none
NetCDF support
NetCDF-4 support
Lua support
DFT-D3 support

Runtime information:
* Directory : /home/samba/homes/convidat/Documents/SSN_FP_June16/Graphene3x3/disp-001
* Running in serial mode.
>> Start of run:  17-JUN-2025  16:35:43

                           *********************** 
                           *  WELCOME TO SIESTA  * 
                           *********************** 

 NOTE: Siesta V5 introduces some new defaults for basis-set generation
 NOTE: which might lead to slightly different numerical results.
 NOTE: Please see the manual for full details and compatibility measures.


reinit: Reading from standard input
reinit: Dumping input in INPUT_TMP.58969
************************** Dump of input data file ****************************
NumberOfAtoms 18
%block LatticeVectors
   12.0753500157475209   -6.9717065630235258    0.0000000000000000
   12.0753500157475209    6.9717065630235258    0.0000000000000000
    0.0000000000000000    0.0000000000000000   37.7945227409938056
%endblock LatticeVectors
AtomicCoordinatesFormat  Fractional
NumberOfSpecies 1
%block ChemicalSpeciesLabel
 1 6 C
%endblock ChemicalSpeciesLabel
LatticeConstant 1.0 Bohr
%block AtomicCoordinatesAndAtomicSpecies
   0.0004964682870935   0.0000000000000000   0.0004964682870935 1
   0.3333333333333333   0.0000000000000000   0.0000000000000000 1
   0.6666666666666666   0.0000000000000000   0.0000000000000000 1
   0.0000000000000000   0.3333333333333333   0.0000000000000000 1
   0.3333333333333333   0.3333333333333333   0.0000000000000000 1
   0.6666666666666666   0.3333333333333334   0.0000000000000000 1
   0.0000000000000000   0.6666666666666666   0.0000000000000000 1
   0.3333333333333333   0.6666666666666666   0.0000000000000000 1
   0.6666666666666666   0.6666666666666666   0.0000000000000000 1
   0.1110328638497653   0.1110328638497653   0.0000000000000000 1
   0.4443661971830987   0.1110328638497653   0.0000000000000000 1
   0.7776995305164319   0.1110328638497653   0.0000000000000000 1
   0.1110328638497653   0.4443661971830987   0.0000000000000000 1
   0.4443661971830986   0.4443661971830986   0.0000000000000000 1
   0.7776995305164319   0.4443661971830986   0.0000000000000000 1
   0.1110328638497653   0.7776995305164319   0.0000000000000000 1
   0.4443661971830987   0.7776995305164319   0.0000000000000000 1
   0.7776995305164320   0.7776995305164320   0.0000000000000000 1
%endblock AtomicCoordinatesAndAtomicSpecies
************************** End of input data file *****************************

reinit: -----------------------------------------------------------------------
reinit: System Name: 
reinit: -----------------------------------------------------------------------
reinit: System Label: siesta
reinit: -----------------------------------------------------------------------

initatom: Reading input for the pseudopotentials and atomic orbitals ----------
Species number:   1 Atomic number:    6 Label: C

Ground state valence configuration (from tables):   2s02  2p02  3d00  4f00

---- Processing specs for species: C
Reading pseudopotential information in PSML from:
  C.psml
PSML file version: 1.1
Using libxc ids:  101 130
GGA--PBE XC_GGA_X_PBE--XC_GGA_C_PBE pb
PSML uuid: 297821e0-be41-11e7-6802-e1ff7dfff095

---- Pseudopotential check for C 

Pseudized shells:
2s( 2.00) rc: 1.20
2p( 2.00) rc: 1.26
Valence configuration for ps generation: 2s:2p: Total charge:   4.000000
For C, standard SIESTA heuristics set lmxkb to 3
 (one more than the basis l, including polarization orbitals).
Use PS.lmax or PS.KBprojectors blocks to override.
C pseudopotential only contains V_ls up to l=1 -- lmxkb reset.

<basis_specs>
===============================================================================
C                    Z=   6    Mass=  12.011        Charge= 0.17977+309
Lmxo=2 Lmxkb= 1    BasisType=split      Semic=F
L=0  Nsemic=0  Cnfigmx=2
          i=1  nzeta=2  polorb=0  (2s)
            splnorm:   0.15000    
               vcte:    40.000    
               rinn:  -0.90000    
               qcoe:    0.0000    
               qyuk:    0.0000    
               qwid:   0.10000E-01
                rcs:    0.0000      0.0000    
            lambdas:    1.0000      1.0000    
L=1  Nsemic=0  Cnfigmx=2
          i=1  nzeta=2  polorb=1  (2p)  (to be polarized perturbatively)
            splnorm:   0.15000    
               vcte:    40.000    
               rinn:  -0.90000    
               qcoe:    0.0000    
               qyuk:    0.0000    
               qwid:   0.10000E-01
                rcs:    0.0000      0.0000    
            lambdas:    1.0000      1.0000    
L=2  Nsemic=0  Cnfigmx=3
          i=1  nzeta=0  polorb=0  (3d)  (perturbative polarization orbital) (from 2p)
-------------------------------------------------------------------------------
L=0  Nkbl=1  erefs: 0.17977+309
L=1  Nkbl=1  erefs: 0.17977+309
===============================================================================
</basis_specs>

Using PAO.SplitTailNorm
atom: Called for C                     (Z =   6)
NOTE: C pseudopotential has channels up to l= 1
NOTE: PAOs with higher l will be generated with V_local
Maximum radius (at nrval) set to   50.00000 8518

read_vps: Pseudopotential generation method:
read_vps: ONCVPSP-3.Hamann's oncvpsp                        
Valence charge in pseudo generation:    4.00000

read_vps: Pseudopotential includes a core correction:
read_vps: Pseudo-core for xc-correction

xc_check: Exchange-correlation functional:
xc_check: Ceperley-Alder
xc_check: WARNING: Pseudopotential generated with GGA PBE functional
Got Vlocal (oncv-fit) from psml data
Choosing vlocal chloc cutoff:  4.122282
qtot up to nchloc:    4.00001153
atom: Maximum radius for chlocal:    4.12228
atom: Maximum radius for r*vlocal+2*Zval:    4.12228
Reading KB projs from C psml data
Using scalar-relativistic projectors in PSML file

PSML: Kleinman-Bylander projectors: 
   l= 0   rc=  1.219773   Ekb= 12.963096
   l= 0   rc=  1.219773   Ekb=  0.771007
   l= 1   rc=  1.278952   Ekb= -8.399923
   l= 1   rc=  1.278952   Ekb= -1.755033

PSML: Total number of  Kleinman-Bylander projectors:   8
atom: -------------------------------------------------------------------------

atom: SANKEY-TYPE ORBITALS:
atom: Selected multiple-zeta basis: split     

SPLIT: Orbitals with angular momentum L= 0

SPLIT: Basis orbitals for state 2s

SPLIT: PAO cut-off radius determined from an
SPLIT: energy shift=  0.010000 Ry
Split based on tail norm

   izeta = 1
                 lambda =    1.000000
                     rc =    4.511437
                 energy =   -0.989254
                kinetic =    0.946651
    potential(screened) =   -1.935906
       potential(ionic) =   -5.498495

   izeta = 2
                 rmatch =    3.075858
              splitnorm =    0.150000
                 energy =   -0.701003
                kinetic =    1.771761
    potential(screened) =   -2.472764
       potential(ionic) =   -6.339278

SPLIT: Orbitals with angular momentum L= 1

SPLIT: Basis orbitals for state 2p

SPLIT: PAO cut-off radius determined from an
SPLIT: energy shift=  0.010000 Ry
Split based on tail norm

   izeta = 1
                 lambda =    1.000000
                     rc =    5.490449
                 energy =   -0.369684
                kinetic =    2.448131
    potential(screened) =   -2.817815
       potential(ionic) =   -6.235458

   izeta = 2
                 rmatch =    3.744030
              splitnorm =    0.150000
                 energy =   -0.242059
                kinetic =    3.581876
    potential(screened) =   -3.823934
       potential(ionic) =   -7.591917
*Note: V_local used for l= 2

** Using vlocal for PAOs with L= 2

POLgen: Perturbative polarization orbital with L=  2

POLgen: Polarization orbital for state 2p
*Note: V_local used for lpol= 2

** Using vlocal for PAOs with L= 2
Split based on tail norm

   izeta = 1
                     rc =    5.490449
                 energy =    1.132297
                kinetic =    2.236883
    potential(screened) =   -1.104586
       potential(ionic) =   -3.924940
atom: Total number of Sankey-type orbitals: 13

atm_pop: Valence configuration (for local Pseudopot. screening):
 2s( 2.00)                                                            
 2p( 2.00)                                                            
 3d( 0.00)                                                            
Vna: chval, zval:    4.00000   4.00000

Vna:  Cut-off radius for the neutral-atom potential:   5.490449
comcore: Pseudo-core radius Rcore=  1.671741

atom: _________________________________________________________________________

prinput: Basis input 

PAO.BasisType split     

%block ChemicalSpeciesLabel
    1    6 C                       # Species index, atomic number, species label
%endblock ChemicalSpeciesLabel

%block PAO.Basis                 # Define Basis set
# WARNING: This information might be incomplete!
C                     2                    # Species label, number of l-shells
 n=2   0   2                         # n, l, Nzeta 
   4.511      3.076   
   1.000      1.000   
 n=2   1   2 P   1                   # n, l, Nzeta, Polarization, NzetaPol
   5.490      3.744   
   1.000      1.000   
%endblock PAO.Basis

prinput: ----------------------------------------------------------------------

Dumping basis to NetCDF file C.ion.nc
coor:   Atomic-coordinates input format  =     Fractional

siesta: Atomic coordinates (Bohr) and species
siesta:      0.00600  -0.00346   0.01876  1        1
siesta:      4.02512  -2.32390   0.00000  1        2
siesta:      8.05023  -4.64780   0.00000  1        3
siesta:      4.02512   2.32390   0.00000  1        4
siesta:      8.05023   0.00000   0.00000  1        5
siesta:     12.07535  -2.32390   0.00000  1        6
siesta:      8.05023   4.64780   0.00000  1        7
siesta:     12.07535   2.32390   0.00000  1        8
siesta:     16.10047   0.00000   0.00000  1        9
siesta:      2.68152   0.00000   0.00000  1       10
siesta:      6.70664  -2.32390   0.00000  1       11
siesta:     10.73175  -4.64780   0.00000  1       12
siesta:      6.70664   2.32390   0.00000  1       13
siesta:     10.73175   0.00000   0.00000  1       14
siesta:     14.75687  -2.32390   0.00000  1       15
siesta:     10.73175   4.64780   0.00000  1       16
siesta:     14.75687   2.32390   0.00000  1       17
siesta:     18.78199   0.00000   0.00000  1       18

siesta: System type = slab      

initatomlists: Number of atoms, orbitals, and projectors:     18   234   144

siesta: ******************** Simulation parameters ****************************
siesta:
siesta: The following are some of the parameters of the simulation.
siesta: A complete list of the parameters used, including default values,
siesta: can be found in file out.fdf
siesta:
redata: Spin configuration                          = none
redata: Number of spin components                   = 1
redata: Time-Reversal Symmetry                      = T
redata: Spin spiral                                 = F
redata: Long output                                 =   F
redata: Number of Atomic Species                    =        1
redata: Charge density info will appear in .RHO file
redata: Write Mulliken charges (when)               = none
redata: Write Mulliken Pop.                         = NO
redata: Write Hirshfeld charges (when)              = none
redata: Write Voronoi charges (when)                = none
redata: Write spin charge (when)                    = none
redata: Matel table size (NRTAB)                    =     1024
redata: Mesh Cutoff                                 =   300.0000 Ry
redata: Net charge of the system                    =     0.0000 |e|
redata: Min. number of SCF Iter                     =        0
redata: Max. number of SCF Iter                     =     1000
redata: SCF convergence failure will abort job
redata: SCF mix quantity                            = Hamiltonian
redata: Mix DM or H after convergence               =   F
redata: Recompute H after scf cycle                 =   F
redata: Mix DM in first SCF step                    =   T
redata: Write Pulay info on disk                    =   F
redata: New DM Occupancy tolerance                  = 0.000000000001
redata: No kicks to SCF
redata: DM Mixing Weight for Kicks                  =     0.5000
redata: Require Harris convergence for SCF          =   F
redata: Harris energy tolerance for SCF             =     0.000100 eV
redata: Require DM convergence for SCF              =   T
redata: DM tolerance for SCF                        =     0.000100
redata: Require EDM convergence for SCF             =   F
redata: EDM tolerance for SCF                       =     0.001000 eV
redata: Require H convergence for SCF               =   T
redata: Hamiltonian tolerance for SCF               =     0.001000 eV
redata: Require (free) Energy convergence for SCF   =   F
redata: (free) Energy tolerance for SCF             =     0.000100 eV
redata: Using DFT-D3 dispersion                     =   F
redata: Using Saved Data (generic)                  =   F
redata: Use continuation files for DM               =   T
redata: Neglect nonoverlap interactions             =   F
redata: Method of Calculation                       = Diagonalization
redata: Electronic Temperature                      =   299.9863 K
redata: Fix the spin of the system                  =   F
redata: Max. number of TDED Iter                    =        1
redata: Number of TDED substeps                     =        3
redata: Dynamics option                             = Single-point calculation
mix.SCF: Pulay mixing                            = Pulay
mix.SCF:    Variant                              = stable
mix.SCF:    History steps                        = 2
mix.SCF:    Linear mixing weight                 =     0.250000
mix.SCF:    Mixing weight                        =     0.250000
mix.SCF:    SVD condition                        = 0.1000E-07
redata: Save all siesta data in one NC              =   F
redata: ***********************************************************************

%block SCF.Mixers
  Pulay
%endblock SCF.Mixers

%block SCF.Mixer.Pulay
  # Mixing method
  method pulay
  variant stable

  # Mixing options
  weight 0.2500
  weight.linear 0.2500
  history 2
%endblock SCF.Mixer.Pulay

DM_history_depth set to one: no extrapolation allowed by default for geometry relaxation
Size of DM history Fstack: 1
Total number of electrons:    72.000000
Total ionic charge:    72.000000

siesta: k-grid: Number of k-points = 1
siesta: k-point is Gamma-only

diag: Algorithm                                     = D&C
diag: Used triangular part                          = Lower
diag: Absolute tolerance                            =  0.100E-15
diag: Orthogonalization factor                      =  0.100E-05
diag: Memory factor                                 =  1.0000


ts: **************************************************************
ts: Save H and S matrices                           =    F
ts: Save DM and EDM matrices                        =    F
ts: Only save the overlap matrix S                  =    F
ts: **************************************************************

************************ Begin: TS CHECKS AND WARNINGS ************************
************************ End: TS CHECKS AND WARNINGS **************************


                     ====================================
                        Single-point calculation
                     ====================================

outcell: Unit cell vectors (Ang):
        6.390000   -3.689268    0.000000
        6.390000    3.689268    0.000000
        0.000000    0.000000   20.000000

outcell: Cell vector modules (Ang)   :    7.378536    7.378536   20.000000
outcell: Cell angles (23,13,12) (deg):     90.0000     90.0000     60.0000
outcell: Cell volume (Ang**3)        :    942.9770
Gamma-point calculation with multiply-connected orbital pairs
Folding of H and S implicitly performed
<dSpData1D:S at geom step 0
  <sparsity:sparsity for geom step 0
    nrows_g=234 nrows=234 sparsity=.9938 nnzs=54414, refcount: 7>
  <dData1D:(new from dSpData1D) n=54414, refcount: 1>
refcount: 1>
new_DM -- step:     1
Initializing Density Matrix...

Attempting to read DM from file... Failed...
DM filled with atomic data:
<dSpData2D:DM initialized from atoms
  <sparsity:sparsity for geom step 0
    nrows_g=234 nrows=234 sparsity=.9938 nnzs=54414, refcount: 8>
  <dData2D:DM n=54414 m=1, refcount: 1>
refcount: 1>
No. of atoms with KB's overlaping orbs in proc 0. Max # of overlaps:      18     151

InitMesh: MESH = 72 x 72 x 216 = 1119744
InitMesh: Mesh cutoff (required, used) =   300.000   322.366 Ry
New grid distribution [1]: sub = 2

stepf: Fermi-Dirac step function

siesta: Program's energy decomposition (eV):
siesta: Ebs     =      -877.647457
siesta: Eions   =      5078.910937
siesta: Ena     =      1356.995521
siesta: Ekin    =      2081.084612
siesta: Enl     =      -116.498925
siesta: Eso     =         0.000000
siesta: Edftu   =         0.000000
siesta: DEna    =      -129.947080
siesta: DUscf   =        10.176219
siesta: DUext   =         0.000000
siesta: Ex      =      -925.402493
siesta: Ec      =      -125.185711
siesta: Exc     =     -1050.588205
siesta: EbV     =         0.000000
siesta: eta*DQ  =         0.000000
siesta: Emadel  =         0.000000
siesta: Emeta   =         0.000000
siesta: Emolmec =         0.000000
siesta: Ekinion =         0.000000
siesta: Eharris =     -2898.351862
siesta: Etot    =     -2927.688794
siesta: FreeEng =     -2927.827921

        iscf     Eharris(eV)        E_KS(eV)     FreeEng(eV)     dDmax    Ef(eV) dHmax(eV)
   scf:    1    -2898.351862    -2927.688794    -2927.827921  1.898282 -6.085832  4.090940
timer: Routine,Calls,Time,% = IterSCF        1       2.014  38.93
   scf:    2    -2929.467897    -2928.620857    -2928.760913  0.046316 -5.376279  2.792350
   scf:    3    -2926.927573    -2928.458527    -2928.548992  0.159714 -4.173132  1.898711
   scf:    4    -2923.541469    -2928.108829    -2928.185384  0.178925 -4.306938  2.419932
   scf:    5    -2929.770021    -2929.298862    -2929.436788  0.069811 -4.221178  0.528057
   scf:    6    -2928.428699    -2929.137169    -2929.266316  0.067830 -4.205333  0.783567
   scf:    7    -2929.057157    -2929.287267    -2929.424413  0.068554 -4.216388  0.554706
   scf:    8    -2927.583899    -2928.889530    -2929.005110  0.078012 -4.217307  1.241479
   scf:    9    -2928.798520    -2929.208370    -2929.341317  0.082795 -4.220044  0.813678
   scf:   10    -2926.713977    -2928.669824    -2928.772202  0.129047 -4.221653  1.858467
   scf:   11    -2928.439832    -2929.086821    -2929.213226  0.084189 -4.224900  1.044733
   scf:   12    -2924.837116    -2928.168771    -2928.243303  0.130306 -4.226732  1.662545
   scf:   13    -2927.733644    -2928.872467    -2928.986777  0.136381 -4.228695  1.244559
   scf:   14    -2923.762261    -2927.992849    -2928.058319  0.133502 -4.232654  2.048272
   scf:   15    -2928.737097    -2929.095871    -2929.222521  0.106707 -4.231396  1.048550
   scf:   16    -2925.140063    -2928.313648    -2928.396562  0.153443 -4.236518  2.222191
   scf:   17    -2929.540725    -2929.310025    -2929.448278  0.084967 -4.234559  0.487150
   scf:   18    -2927.743485    -2928.937073    -2929.054480  0.106442 -4.239096  1.495626
   scf:   19    -2929.236814    -2929.325988    -2929.465155  0.082295 -4.237408  0.453809
   scf:   20    -2927.854473    -2928.961006    -2929.080286  0.092287 -4.240061  1.281650
   scf:   21    -2929.295024    -2929.345850    -2929.486064  0.064673 -4.239466  0.377119
   scf:   22    -2928.273205    -2929.071886    -2929.197573  0.074281 -4.240943  1.078875
   scf:   23    -2929.338318    -2929.363423    -2929.504688  0.050641 -4.240999  0.224570
   scf:   24    -2928.837225    -2929.226948    -2929.360932  0.044423 -4.241990  0.663215
   scf:   25    -2929.365312    -2929.373405    -2929.515208  0.029015 -4.242154  0.111993
   scf:   26    -2929.209371    -2929.330513    -2929.470000  0.022639 -4.242907  0.339832
   scf:   27    -2929.374574    -2929.376608    -2929.518575  0.018960 -4.243024  0.048696
   scf:   28    -2929.339224    -2929.366806    -2929.508305  0.010739 -4.243566  0.169612
   scf:   29    -2929.376967    -2929.377339    -2929.519358  0.009511 -4.243655  0.022430
   scf:   30    -2929.369273    -2929.375216    -2929.517135  0.005729 -4.244035  0.091578
   scf:   31    -2929.377422    -2929.377494    -2929.519530  0.004820 -4.244102  0.009661
   scf:   32    -2929.376136    -2929.377141    -2929.519152  0.002468 -4.244371  0.039578
   scf:   33    -2929.377495    -2929.377522    -2929.519559  0.002075 -4.244418  0.005734
   scf:   34    -2929.377257    -2929.377453    -2929.519487  0.001146 -4.244607  0.017345
   scf:   35    -2929.377521    -2929.377526    -2929.519563  0.000940 -4.244640  0.003523
   scf:   36    -2929.377435    -2929.377501    -2929.519540  0.000669 -4.244772  0.010067
   scf:   37    -2929.377526    -2929.377527    -2929.519565  0.000539 -4.244795  0.001506
   scf:   38    -2929.377497    -2929.377519    -2929.519557  0.000397 -4.244888  0.006449
   scf:   39    -2929.377526    -2929.377527    -2929.519566  0.000310 -4.244904  0.001046
   scf:   40    -2929.377518    -2929.377525    -2929.519563  0.000226 -4.244969  0.003663
   scf:   41    -2929.377526    -2929.377527    -2929.519566  0.000171 -4.244981  0.001080
   scf:   42    -2929.377520    -2929.377525    -2929.519564  0.000167 -4.245025  0.002325
   scf:   43    -2929.377527    -2929.377527    -2929.519566  0.000106 -4.245034  0.001005
   scf:   44    -2929.377520    -2929.377525    -2929.519564  0.000152 -4.245065  0.002196
   scf:   45    -2929.377527    -2929.377527    -2929.519566  0.000141 -4.245071  0.000636
   scf:   46    -2929.377521    -2929.377526    -2929.519564  0.000156 -4.245093  0.002642
   scf:   47    -2929.377526    -2929.377527    -2929.519566  0.000159 -4.245097  0.000911
   scf:   48    -2929.377519    -2929.377525    -2929.519563  0.000198 -4.245112  0.003085
   scf:   49    -2929.377526    -2929.377527    -2929.519566  0.000170 -4.245115  0.001112
   scf:   50    -2929.377516    -2929.377524    -2929.519563  0.000228 -4.245125  0.003468
   scf:   51    -2929.377526    -2929.377527    -2929.519565  0.000174 -4.245128  0.001203
   scf:   52    -2929.377516    -2929.377524    -2929.519562  0.000230 -4.245135  0.003410
   scf:   53    -2929.377525    -2929.377527    -2929.519565  0.000145 -4.245136  0.001270
   scf:   54    -2929.377513    -2929.377523    -2929.519561  0.000220 -4.245141  0.003147
   scf:   55    -2929.377525    -2929.377527    -2929.519565  0.000214 -4.245142  0.001143
   scf:   56    -2929.377508    -2929.377522    -2929.519561  0.000254 -4.245146  0.004159
   scf:   57    -2929.377526    -2929.377527    -2929.519565  0.000254 -4.245147  0.001445
   scf:   58    -2929.377505    -2929.377521    -2929.519559  0.000331 -4.245149  0.005226
   scf:   59    -2929.377524    -2929.377526    -2929.519565  0.000277 -4.245150  0.001781
   scf:   60    -2929.377502    -2929.377520    -2929.519558  0.000375 -4.245151  0.005726
   scf:   61    -2929.377523    -2929.377526    -2929.519565  0.000279 -4.245152  0.002032
   scf:   62    -2929.377494    -2929.377518    -2929.519556  0.000370 -4.245153  0.005369
   scf:   63    -2929.377524    -2929.377526    -2929.519565  0.000256 -4.245153  0.002097
   scf:   64    -2929.377485    -2929.377515    -2929.519554  0.000346 -4.245154  0.005578
   scf:   65    -2929.377522    -2929.377525    -2929.519564  0.000365 -4.245154  0.001752
   scf:   66    -2929.377481    -2929.377515    -2929.519551  0.000439 -4.245155  0.007151
   scf:   67    -2929.377520    -2929.377525    -2929.519564  0.000426 -4.245155  0.002506
   scf:   68    -2929.377467    -2929.377510    -2929.519548  0.000555 -4.245155  0.008686
   scf:   69    -2929.377521    -2929.377525    -2929.519564  0.000451 -4.245155  0.003014
   scf:   70    -2929.377450    -2929.377505    -2929.519544  0.000617 -4.245156  0.009364
   scf:   71    -2929.377519    -2929.377524    -2929.519563  0.000445 -4.245156  0.003328
   scf:   72    -2929.377440    -2929.377503    -2929.519540  0.000592 -4.245156  0.008521
   scf:   73    -2929.377514    -2929.377523    -2929.519562  0.000449 -4.245156  0.003369
   scf:   74    -2929.377417    -2929.377497    -2929.519533  0.000584 -4.245156  0.009744
   scf:   75    -2929.377514    -2929.377524    -2929.519562  0.000619 -4.245156  0.002948
   scf:   76    -2929.377388    -2929.377487    -2929.519526  0.000754 -4.245156  0.012186
   scf:   77    -2929.377513    -2929.377523    -2929.519561  0.000709 -4.245156  0.004290
   scf:   78    -2929.377361    -2929.377481    -2929.519517  0.000927 -4.245156  0.014421
   scf:   79    -2929.377505    -2929.377521    -2929.519560  0.000732 -4.245156  0.005052
   scf:   80    -2929.377327    -2929.377472    -2929.519505  0.001014 -4.245156  0.015263
   scf:   81    -2929.377500    -2929.377520    -2929.519558  0.000707 -4.245156  0.005443
   scf:   82    -2929.377276    -2929.377456    -2929.519493  0.000944 -4.245157  0.013416
   scf:   83    -2929.377500    -2929.377519    -2929.519557  0.000783 -4.245156  0.005396
   scf:   84    -2929.377214    -2929.377439    -2929.519475  0.001024 -4.245156  0.016926
   scf:   85    -2929.377489    -2929.377516    -2929.519555  0.001046 -4.245156  0.005198
   scf:   86    -2929.377161    -2929.377426    -2929.519456  0.001289 -4.245156  0.020666
   scf:   87    -2929.377477    -2929.377514    -2929.519552  0.001176 -4.245156  0.007310
   scf:   88    -2929.377069    -2929.377399    -2929.519432  0.001544 -4.245157  0.023821
   scf:   89    -2929.377474    -2929.377512    -2929.519549  0.001182 -4.245156  0.008425
   scf:   90    -2929.376950    -2929.377364    -2929.519398  0.001654 -4.245156  0.024733
   scf:   91    -2929.377460    -2929.377507    -2929.519545  0.001115 -4.245156  0.008847
   scf:   92    -2929.376853    -2929.377340    -2929.519365  0.001493 -4.245156  0.020941
   scf:   93    -2929.377436    -2929.377502    -2929.519540  0.001354 -4.245156  0.008583
   scf:   94    -2929.376680    -2929.377291    -2929.519315  0.001782 -4.245157  0.029193
   scf:   95    -2929.377425    -2929.377499    -2929.519535  0.001756 -4.245156  0.009084
   scf:   96    -2929.376482    -2929.377232    -2929.519261  0.002190 -4.245156  0.034854
   scf:   97    -2929.377404    -2929.377491    -2929.519528  0.001940 -4.245156  0.012391
   scf:   98    -2929.376266    -2929.377175    -2929.519193  0.002557 -4.245156  0.039149
   scf:   99    -2929.377366    -2929.377480    -2929.519519  0.001895 -4.245156  0.013999
   scf:  100    -2929.375967    -2929.377093    -2929.519102  0.002691 -4.245157  0.039887
   scf:  101    -2929.377331    -2929.377474    -2929.519509  0.001816 -4.245156  0.014307
   scf:  102    -2929.375630    -2929.376995    -2929.519011  0.002346 -4.245156  0.033214
   scf:  103    -2929.377302    -2929.377463    -2929.519496  0.002332 -4.245156  0.013567
   scf:  104    -2929.375162    -2929.376864    -2929.518870  0.003081 -4.245155  0.050066
   scf:  105    -2929.377239    -2929.377443    -2929.519480  0.002937 -4.245156  0.015773
   scf:  106    -2929.374690    -2929.376736    -2929.518724  0.003705 -4.245156  0.058480
   scf:  107    -2929.377162    -2929.377426    -2929.519460  0.003188 -4.245155  0.020862
   scf:  108    -2929.374044    -2929.376551    -2929.518542  0.004216 -4.245157  0.063962
   scf:  109    -2929.377109    -2929.377408    -2929.519437  0.003021 -4.245156  0.023064
   scf:  110    -2929.373174    -2929.376304    -2929.518287  0.004333 -4.245155  0.063791
   scf:  111    -2929.377006    -2929.377377    -2929.519410  0.003182 -4.245156  0.022934
   scf:  112    -2929.372374    -2929.376088    -2929.518041  0.003638 -4.245155  0.058368
   scf:  113    -2929.376865    -2929.377340    -2929.519372  0.003968 -4.245155  0.021207
   scf:  114    -2929.371092    -2929.375728    -2929.517668  0.005268 -4.245156  0.085003
   scf:  115    -2929.376752    -2929.377308    -2929.519331  0.004870 -4.245155  0.027012
   scf:  116    -2929.369667    -2929.375319    -2929.517257  0.006186 -4.245154  0.097138
   scf:  117    -2929.376574    -2929.377255    -2929.519279  0.005179 -4.245155  0.034823
   scf:  118    -2929.368054    -2929.374878    -2929.516772  0.006872 -4.245153  0.103518
   scf:  119    -2929.376341    -2929.377186    -2929.519212  0.004753 -4.245153  0.037756
   scf:  120    -2929.365729    -2929.374228    -2929.516078  0.006947 -4.245155  0.101169
   scf:  121    -2929.376084    -2929.377124    -2929.519137  0.005512 -4.245153  0.036429
   scf:  122    -2929.363352    -2929.373552    -2929.515400  0.005992 -4.245154  0.101677
   scf:  123    -2929.375792    -2929.377032    -2929.519039  0.006705 -4.245153  0.036393
   scf:  124    -2929.359996    -2929.372616    -2929.514401  0.008920 -4.245150  0.142904
   scf:  125    -2929.375409    -2929.376916    -2929.518930  0.008008 -4.245152  0.045834
   scf:  126    -2929.356388    -2929.371615    -2929.513317  0.010270 -4.245152  0.159696
   scf:  127    -2929.374908    -2929.376794    -2929.518793  0.008349 -4.245149  0.057240
   scf:  128    -2929.352082    -2929.370404    -2929.512080  0.011091 -4.245152  0.165301
   scf:  129    -2929.374453    -2929.376647    -2929.518630  0.007398 -4.245150  0.060485
   scf:  130    -2929.346063    -2929.368703    -2929.510298  0.010867 -4.245146  0.157366
   scf:  131    -2929.373778    -2929.376457    -2929.518445  0.009326 -4.245148  0.056499
   scf:  132    -2929.340538    -2929.367182    -2929.508649  0.010197 -4.245146  0.170911
   scf:  133    -2929.372937    -2929.376228    -2929.518203  0.010982 -4.245144  0.061407
   scf:  134    -2929.332408    -2929.364905    -2929.506271  0.014636 -4.245149  0.232913
   scf:  135    -2929.372197    -2929.376006    -2929.517951  0.012784 -4.245143  0.074389
   scf:  136    -2929.323605    -2929.362403    -2929.503686  0.016282 -4.245142  0.252970
   scf:  137    -2929.371085    -2929.375696    -2929.517637  0.012934 -4.245142  0.090732
   scf:  138    -2929.314157    -2929.359812    -2929.500900  0.017157 -4.245137  0.254794
   scf:  139    -2929.369823    -2929.375311    -2929.517245  0.011058 -4.245137  0.093562
   scf:  140    -2929.299995    -2929.355836    -2929.496692  0.016549 -4.245142  0.236805
   scf:  141    -2929.368402    -2929.374941    -2929.516832  0.015043 -4.245133  0.084351
   scf:  142    -2929.287159    -2929.352224    -2929.492982  0.016495 -4.245134  0.274605
   scf:  143    -2929.366825    -2929.374473    -2929.516338  0.017215 -4.245131  0.098432
   scf:  144    -2929.270895    -2929.347727    -2929.488196  0.022827 -4.245124  0.360751
   scf:  145    -2929.365348    -2929.373996    -2929.515866  0.019413 -4.245124  0.114278
   scf:  146    -2929.254623    -2929.343172    -2929.483335  0.024694 -4.245129  0.378942
   scf:  147    -2929.363446    -2929.373526    -2929.515349  0.019148 -4.245117  0.133450
   scf:  148    -2929.238520    -2929.338664    -2929.478690  0.025108 -4.245125  0.368835
   scf:  149    -2929.361827    -2929.373000    -2929.514775  0.015819 -4.245114  0.131553
   scf:  150    -2929.216352    -2929.332418    -2929.472114  0.023113 -4.245108  0.329970
   scf:  151    -2929.359944    -2929.372487    -2929.514274  0.021838 -4.245107  0.113778
   scf:  152    -2929.202355    -2929.328583    -2929.467980  0.023175 -4.245107  0.382091
   scf:  153    -2929.358275    -2929.372025    -2929.513780  0.023607 -4.245097  0.133970
   scf:  154    -2929.186056    -2929.324032    -2929.463231  0.030739 -4.245110  0.484816
   scf:  155    -2929.357849    -2929.371816    -2929.513526  0.025846 -4.245093  0.144337
   scf:  156    -2929.175059    -2929.320878    -2929.459998  0.030917 -4.245093  0.480016
   scf:  157    -2929.356786    -2929.371564    -2929.513286  0.024093 -4.245090  0.163716
   scf:  158    -2929.168809    -2929.319219    -2929.458148  0.030813 -4.245086  0.456780
   scf:  159    -2929.356079    -2929.371273    -2929.512999  0.019577 -4.245081  0.153001
   scf:  160    -2929.154595    -2929.315188    -2929.453864  0.027488 -4.245096  0.394673
   scf:  161    -2929.355785    -2929.371282    -2929.512971  0.024971 -4.245076  0.128968
   scf:  162    -2929.155508    -2929.315454    -2929.454300  0.024894 -4.245085  0.413325
   scf:  163    -2929.356345    -2929.371410    -2929.513104  0.025546 -4.245077  0.139368
   scf:  164    -2929.159505    -2929.316633    -2929.455458  0.032415 -4.245073  0.512097
   scf:  165    -2929.358265    -2929.371844    -2929.513602  0.027521 -4.245072  0.139322
   scf:  166    -2929.173980    -2929.320665    -2929.459616  0.030874 -4.245088  0.476469
   scf:  167    -2929.359967    -2929.372459    -2929.514224  0.024574 -4.245071  0.150765
   scf:  168    -2929.194999    -2929.326534    -2929.465913  0.029791 -4.245092  0.445303
   scf:  169    -2929.362418    -2929.373105    -2929.514883  0.020269 -4.245078  0.129788
   scf:  170    -2929.212953    -2929.331452    -2929.471105  0.024682 -4.245081  0.363835
   scf:  171    -2929.364390    -2929.373736    -2929.515583  0.019444 -4.245083  0.109479
   scf:  172    -2929.239292    -2929.338894    -2929.478849  0.018020 -4.245089  0.284744
   scf:  173    -2929.366346    -2929.374311    -2929.516187  0.018219 -4.245086  0.090623
   scf:  174    -2929.259042    -2929.344385    -2929.484649  0.022487 -4.245105  0.360707
   scf:  175    -2929.368593    -2929.374940    -2929.516824  0.020178 -4.245094  0.084692
   scf:  176    -2929.280809    -2929.350443    -2929.491108  0.019860 -4.245104  0.315274
   scf:  177    -2929.370277    -2929.375436    -2929.517359  0.017006 -4.245104  0.095977
   scf:  178    -2929.299939    -2929.355852    -2929.496738  0.020147 -4.245107  0.309231
   scf:  179    -2929.371825    -2929.375853    -2929.517814  0.014940 -4.245109  0.079825
   scf:  180    -2929.314913    -2929.360015    -2929.501088  0.016396 -4.245122  0.247055
   scf:  181    -2929.372994    -2929.376239    -2929.518204  0.011593 -4.245116  0.071670
   scf:  182    -2929.329276    -2929.364016    -2929.505370  0.013116 -4.245127  0.189841
   scf:  183    -2929.374098    -2929.376532    -2929.518508  0.009111 -4.245124  0.054421
   scf:  184    -2929.339381    -2929.366833    -2929.508326  0.010901 -4.245126  0.178890
   scf:  185    -2929.374900    -2929.376762    -2929.518767  0.010764 -4.245129  0.038546
   scf:  186    -2929.349061    -2929.369567    -2929.511160  0.009495 -4.245134  0.153359
   scf:  187    -2929.375476    -2929.376946    -2929.518957  0.008916 -4.245133  0.046288
   scf:  188    -2929.355749    -2929.371434    -2929.513148  0.010511 -4.245142  0.165091
   scf:  189    -2929.376047    -2929.377101    -2929.519110  0.008596 -4.245139  0.038327
   scf:  190    -2929.360999    -2929.372889    -2929.514705  0.008443 -4.245141  0.130983
   scf:  191    -2929.376404    -2929.377202    -2929.519224  0.006633 -4.245143  0.038331
   scf:  192    -2929.365302    -2929.374108    -2929.515959  0.007594 -4.245143  0.114435
   scf:  193    -2929.376664    -2929.377277    -2929.519307  0.005177 -4.245145  0.029512
   scf:  194    -2929.368172    -2929.374913    -2929.516800  0.005726 -4.245149  0.084796
   scf:  195    -2929.376880    -2929.377346    -2929.519373  0.004563 -4.245147  0.023993
   scf:  196    -2929.370607    -2929.375585    -2929.517533  0.004062 -4.245150  0.062874
   scf:  197    -2929.377063    -2929.377393    -2929.519421  0.003827 -4.245150  0.018721
   scf:  198    -2929.372257    -2929.376049    -2929.518015  0.004683 -4.245150  0.075308
   scf:  199    -2929.377173    -2929.377422    -2929.519458  0.004222 -4.245151  0.015854
   scf:  200    -2929.373672    -2929.376452    -2929.518423  0.003814 -4.245153  0.060411
   scf:  201    -2929.377248    -2929.377450    -2929.519485  0.003311 -4.245152  0.018179
   scf:  202    -2929.374640    -2929.376719    -2929.518716  0.003885 -4.245154  0.060156
   scf:  203    -2929.377338    -2929.377474    -2929.519507  0.002968 -4.245153  0.014221
   scf:  204    -2929.375338    -2929.376911    -2929.518925  0.002982 -4.245153  0.045450
   scf:  205    -2929.377385    -2929.377484    -2929.519521  0.002180 -4.245154  0.013263
   scf:  206    -2929.375948    -2929.377087    -2929.519098  0.002488 -4.245154  0.036541
   scf:  207    -2929.377411    -2929.377494    -2929.519532  0.001560 -4.245154  0.009724
   scf:  208    -2929.376329    -2929.377194    -2929.519211  0.001819 -4.245156  0.030126
   scf:  209    -2929.377444    -2929.377505    -2929.519541  0.001856 -4.245155  0.007180
   scf:  210    -2929.376635    -2929.377276    -2929.519306  0.001567 -4.245155  0.024724
   scf:  211    -2929.377471    -2929.377510    -2929.519547  0.001472 -4.245156  0.007754
   scf:  212    -2929.376860    -2929.377340    -2929.519370  0.001805 -4.245155  0.028570
   scf:  213    -2929.377481    -2929.377513    -2929.519552  0.001514 -4.245156  0.006183
   scf:  214    -2929.377042    -2929.377393    -2929.519421  0.001403 -4.245156  0.021872
   scf:  215    -2929.377490    -2929.377517    -2929.519556  0.001139 -4.245156  0.006629
   scf:  216    -2929.377162    -2929.377425    -2929.519460  0.001345 -4.245156  0.020429
   scf:  217    -2929.377505    -2929.377521    -2929.519558  0.000951 -4.245156  0.004950
   scf:  218    -2929.377246    -2929.377448    -2929.519484  0.000987 -4.245156  0.014779
   scf:  219    -2929.377510    -2929.377521    -2929.519560  0.000728 -4.245156  0.004321
   scf:  220    -2929.377330    -2929.377473    -2929.519507  0.000758 -4.245156  0.010784
   scf:  221    -2929.377511    -2929.377523    -2929.519562  0.000614 -4.245156  0.003022
   scf:  222    -2929.377378    -2929.377487    -2929.519522  0.000760 -4.245157  0.012306
   scf:  223    -2929.377517    -2929.377525    -2929.519563  0.000708 -4.245156  0.002548
   scf:  224    -2929.377412    -2929.377494    -2929.519533  0.000595 -4.245156  0.009525
   scf:  225    -2929.377521    -2929.377525    -2929.519563  0.000537 -4.245156  0.003020
   scf:  226    -2929.377443    -2929.377504    -2929.519541  0.000661 -4.245156  0.010314
   scf:  227    -2929.377521    -2929.377525    -2929.519564  0.000520 -4.245156  0.002284
   scf:  228    -2929.377467    -2929.377511    -2929.519547  0.000493 -4.245156  0.007558
   scf:  229    -2929.377522    -2929.377526    -2929.519565  0.000374 -4.245156  0.002309
   scf:  230    -2929.377480    -2929.377514    -2929.519552  0.000444 -4.245156  0.006597
   scf:  231    -2929.377525    -2929.377526    -2929.519565  0.000286 -4.245156  0.001647
   scf:  232    -2929.377491    -2929.377517    -2929.519556  0.000311 -4.245156  0.004727
   scf:  233    -2929.377525    -2929.377526    -2929.519565  0.000301 -4.245156  0.001329
   scf:  234    -2929.377503    -2929.377521    -2929.519558  0.000251 -4.245156  0.003996
   scf:  235    -2929.377524    -2929.377526    -2929.519565  0.000232 -4.245156  0.001246
   scf:  236    -2929.377508    -2929.377522    -2929.519560  0.000299 -4.245157  0.004757
   scf:  237    -2929.377526    -2929.377527    -2929.519565  0.000258 -4.245156  0.000981
   scf:  238    -2929.377512    -2929.377523    -2929.519562  0.000223 -4.245156  0.003502
   scf:  239    -2929.377527    -2929.377527    -2929.519566  0.000187 -4.245156  0.001122
   scf:  240    -2929.377517    -2929.377524    -2929.519563  0.000233 -4.245156  0.003568
   scf:  241    -2929.377526    -2929.377527    -2929.519566  0.000170 -4.245156  0.000808
   scf:  242    -2929.377520    -2929.377525    -2929.519563  0.000166 -4.245157  0.002501
   scf:  243    -2929.377526    -2929.377527    -2929.519566  0.000117 -4.245156  0.000769
   scf:  244    -2929.377521    -2929.377525    -2929.519564  0.000139 -4.245156  0.002010
   scf:  245    -2929.377527    -2929.377527    -2929.519566  0.000099 -4.245156  0.000523

SCF Convergence by DM+H criterion
max |DM_out - DM_in|         :     0.0000988392
max |H_out - H_in|      (eV) :     0.0005234333
SCF cycle converged after 245 iterations

Using DM_out to compute the final energy and forces
No. of atoms with KB's overlaping orbs in proc 0. Max # of overlaps:      18     151

siesta: E_KS(eV) =            -2929.3775

siesta: E_KS - E_eggbox =     -2929.3775

siesta: Atomic forces (eV/Ang):
----------------------------------------
   Tot    0.001985    0.000399   -0.000009
----------------------------------------
   Max    0.323996
   Res    0.142569    sqrt( Sum f_i^2 / 3N )
----------------------------------------
   Max    0.323996    constrained

Stress tensor Voigt[x,y,z,yz,xz,xy] (kbar):      -26.11      -34.71        0.03       -0.00       -0.00        0.65
(Free)E + p*V (eV/cell)    -2917.5942
Target enthalpy (eV/cell)    -2929.5196

siesta: Program's energy decomposition (eV):
siesta: Ebs     =      -962.856852
siesta: Eions   =      5078.910937
siesta: Ena     =      1356.995521
siesta: Ekin    =      2020.227988
siesta: Enl     =      -105.746434
siesta: Eso     =         0.000000
siesta: Edftu   =         0.000000
siesta: DEna    =       -88.802932
siesta: DUscf   =         6.197098
siesta: DUext   =         0.000000
siesta: Ex      =      -914.735931
siesta: Ec      =      -124.601900
siesta: Exc     =     -1039.337831
siesta: EbV     =         0.000000
siesta: eta*DQ  =         0.000000
siesta: Emadel  =         0.000000
siesta: Emeta   =         0.000000
siesta: Emolmec =         0.000000
siesta: Ekinion =         0.000000
siesta: Eharris =     -2929.377527
siesta: Etot    =     -2929.377527
siesta: FreeEng =     -2929.519566

siesta: Final energy (eV):
siesta:  Band Struct. =    -962.856852
siesta:       Kinetic =    2020.227988
siesta:       Hartree =   13948.837655
siesta:         Edftu =       0.000000
siesta:       Eso     =       0.000000
siesta:    Ext. field =       0.000000
siesta:         Exch. =    -914.735931
siesta:         Corr. =    -124.601900
siesta:     Bulk bias =       0.000000
siesta:   Exch.-corr. =   -1039.337831
siesta:  Ion-electron =  -29733.892601
siesta:       Ion-ion =   11874.787261
siesta:       Ekinion =       0.000000
siesta: D3 dispersion =       0.000000
siesta:         Total =   -2929.377527
siesta:         Fermi =      -4.245156

siesta: Atomic forces (eV/Ang):
siesta:      1    0.096062    0.041120   -0.107507
siesta:      2    0.190230   -0.094694   -0.006609
siesta:      3    0.259950    0.026570   -0.006375
siesta:      4    0.249601    0.045110   -0.006487
siesta:      5    0.323912   -0.090340    0.004582
siesta:      6    0.169225   -0.093739   -0.006553
siesta:      7    0.179951   -0.076031   -0.006365
siesta:      8    0.239168    0.027912   -0.006664
siesta:      9    0.323912   -0.090336    0.004581
siesta:     10   -0.216202   -0.013142    0.053545
siesta:     11   -0.176682    0.005968   -0.009943
siesta:     12   -0.179999    0.048968    0.052259
siesta:     13   -0.247733    0.128672   -0.009827
siesta:     14   -0.319556    0.004963   -0.009367
siesta:     15   -0.173775    0.004210    0.002587
siesta:     16   -0.143718   -0.013301    0.052191
siesta:     17   -0.248364    0.133947    0.002498
siesta:     18   -0.323996    0.004542    0.003445
siesta: ----------------------------------------
siesta:    Tot    0.001985    0.000399   -0.000009

siesta: Stress tensor (static) (eV/Ang**3):
siesta:    -0.016297    0.000404   -0.000001
siesta:     0.000404   -0.021661   -0.000000
siesta:    -0.000001   -0.000000    0.000019

siesta: Cell volume =        942.976973 Ang**3

siesta: Pressure (static):
siesta:                Solid            Molecule  Units
siesta:           0.00013774          0.00014623  Ry/Bohr**3
siesta:           0.01264646          0.01342664  eV/Ang**3
siesta:          20.26186911         21.51184974  kBar
(Free)E+ p_basis*V_orbitals  =       -2922.484304
(Free)Eharris+ p_basis*V_orbitals  =       -2922.484304

siesta: Electric dipole (a.u.)  =    0.000000    0.000000    0.000000
siesta: Electric dipole (Debye) =    0.000000    0.000000    0.000001

cite: Please see "siesta.bib" for an exhaustive BiBTeX file.
cite: Please clearly indicate Siesta version in published work: 5.2.1
cite: This calculation has made use of the following articles
cite: which are encouraged to be cited in a published work.
        Primary SIESTA paper
          DOI: www.doi.org/10.1088/0953-8984/14/11/302


timer: Elapsed wall time (sec) =     266.542
timer: CPU execution times (sec):

Routine            Calls   Time/call    Tot.time        %
siesta                 1     499.810     499.810   100.00
Setup                  1       0.999       0.999     0.20
bands                  1       0.000       0.000     0.00
KSV_init               1       0.000       0.000     0.00
IterGeom               1     498.806     498.806    99.80
geom_init              1       2.159       2.159     0.43
state_init             1       0.137       0.137     0.03
hsparse                1       0.051       0.051     0.01
overlap                1       0.077       0.077     0.02
Setup_H0               1       1.092       1.092     0.22
naefs                  2       0.000       0.000     0.00
dnaefs                 2       0.000       0.000     0.00
MolMec                 2       0.000       0.000     0.00
kinefsm                2       0.047       0.094     0.02
nlefsm                 2       0.057       0.113     0.02
DHSCF_Init             1       0.939       0.939     0.19
DHSCF1                 1       0.018       0.018     0.00
InitMesh               1       0.018       0.018     0.00
INITMESH               1       0.000       0.000     0.00
DHSCF2                 1       0.921       0.921     0.18
REMESH                 1       0.049       0.049     0.01
REORD                509       0.001       0.744     0.15
PHION                  1       0.745       0.745     0.15
COMM_BSC             991       0.001       0.992     0.20
POISON               248       0.041      10.286     2.06
fft                  496       0.014       7.183     1.44
setup_H              246       1.888     464.514    92.94
DHSCF                247       1.888     466.315    93.30
DHSCF3               247       1.881     464.724    92.98
rhoofd               247       1.338     330.434    66.11
XC                   247       0.038       9.315     1.86
GXC-CellXC           247       0.033       8.271     1.65
gridxc@cellXC        247       0.033       8.270     1.65
vmat                 247       0.408     100.711    20.15
IterSCF              245       2.016     493.966    98.83
compute_dm           245       0.123      30.055     6.01
diagon               245       0.122      29.816     5.97
r-eigvec             245       0.056      13.782     2.76
r-buildHS            245       0.000       0.025     0.00
rdiag                245       0.056      13.754     2.75
rdiag1               245       0.003       0.713     0.14
rdiag2               245       0.007       1.630     0.33
rdiag3               245       0.045      10.935     2.19
rdiag4               245       0.002       0.448     0.09
r-buildD             245       0.064      15.740     3.15
MIXER                244       0.000       0.087     0.02
PostSCF                1       2.678       2.678     0.54
FINAL_HF               1       2.678       2.678     0.54
DHSCF4                 1       1.589       1.589     0.32
dfscf                  1       1.486       1.486     0.30
overfsm                1       0.021       0.021     0.00
writeHSX               1       0.000       0.000     0.00
state_analysis         1       0.000       0.000     0.00
siesta_move            1       0.000       0.000     0.00
Analysis               1       0.001       0.001     0.00
optical                1       0.000       0.000     0.00
  

>> End of run:  17-JUN-2025  16:40:10
Job completed
