calculator: siesta
length_unit: au
nqpoint: 303    
npath: 3      
segment_nqpoint:
- 101
- 101
- 101
labels:
- [ 'G', 'K' ]
- [ 'K', 'M' ]
- [ 'M', '$\Gamma$' ]
reciprocal_lattice:
- [   0.12422000,  -0.21515535,   0.00000000 ] # a*
- [   0.12422000,   0.21515535,   0.00000000 ] # b*
- [   0.00000000,   0.00000000,   0.02645886 ] # c*
natom: 2      
lattice:
- [     4.025116671915840,    -2.323902187674509,     0.000000000000000 ] # a
- [     4.025116671915840,     2.323902187674509,     0.000000000000000 ] # b
- [     0.000000000000000,     0.000000000000000,    37.794522740993806 ] # c
points:
- symbol: C # 1
  coordinates: [  0.000000000000000,  0.000000000000000,  0.000000000000000 ]
  mass: 12.010700
- symbol: C # 2
  coordinates: [  0.333098591549296,  0.333098591549296,  0.000000000000000 ]
  mass: 12.010700

phonon:
- q-position: [    0.0000000,    0.0000000,    0.0000000 ]
  distance:    0.0000000
  band:
  - # 1
    frequency:   -0.0015540465
  - # 2
    frequency:   -0.0005449715
  - # 3
    frequency:    0.0013634935
  - # 4
    frequency:   26.8228919518
  - # 5
    frequency:   60.0067638064
  - # 6
    frequency:   60.1691016740

- q-position: [    0.0066667,    0.0033333,    0.0000000 ]
  distance:    0.0014344
  band:
  - # 1
    frequency:   -0.1232542318
  - # 2
    frequency:   -0.0896314207
  - # 3
    frequency:    0.5764033620
  - # 4
    frequency:   26.8202896065
  - # 5
    frequency:   60.0024385794
  - # 6
    frequency:   60.1657926963

- q-position: [    0.0133333,    0.0066667,    0.0000000 ]
  distance:    0.0028687
  band:
  - # 1
    frequency:   -0.2463903756
  - # 2
    frequency:   -0.1784868732
  - # 3
    frequency:    1.1526471002
  - # 4
    frequency:   26.8124837817
  - # 5
    frequency:   59.9894366214
  - # 6
    frequency:   60.1558962569

- q-position: [    0.0200000,    0.0100000,    0.0000000 ]
  distance:    0.0043031
  band:
  - # 1
    frequency:   -0.3692943400
  - # 2
    frequency:   -0.2658026810
  - # 3
    frequency:    1.7285734715
  - # 4
    frequency:   26.7994781103
  - # 5
    frequency:   59.9676847801
  - # 6
    frequency:   60.1394981596

- q-position: [    0.0266667,    0.0133333,    0.0000000 ]
  distance:    0.0057375
  band:
  - # 1
    frequency:   -0.4918494869
  - # 2
    frequency:   -0.3507812300
  - # 3
    frequency:    2.3040236945
  - # 4
    frequency:   26.7812786459
  - # 5
    frequency:   59.9370786998
  - # 6
    frequency:   60.1167238497

- q-position: [    0.0333333,    0.0166667,    0.0000000 ]
  distance:    0.0071718
  band:
  - # 1
    frequency:   -0.6139393622
  - # 2
    frequency:   -0.4325944199
  - # 3
    frequency:    2.8788392542
  - # 4
    frequency:   26.7578938617
  - # 5
    frequency:   59.8975045452
  - # 6
    frequency:   60.0877166947

- q-position: [    0.0400000,    0.0200000,    0.0000000 ]
  distance:    0.0086062
  band:
  - # 1
    frequency:   -0.7354474740
  - # 2
    frequency:   -0.5103687535
  - # 3
    frequency:    3.4528618621
  - # 4
    frequency:   26.7293346477
  - # 5
    frequency:   59.8488611001
  - # 6
    frequency:   60.0526158936

- q-position: [    0.0466667,    0.0233333,    0.0000000 ]
  distance:    0.0100406
  band:
  - # 1
    frequency:   -0.8562572425
  - # 2
    frequency:   -0.5831680461
  - # 3
    frequency:    4.0259334952
  - # 4
    frequency:   26.6956143087
  - # 5
    frequency:   59.7910767346
  - # 6
    frequency:   60.0115395178

- q-position: [    0.0533333,    0.0266667,    0.0000000 ]
  distance:    0.0114750
  band:
  - # 1
    frequency:   -0.9762519679
  - # 2
    frequency:   -0.6499712024
  - # 3
    frequency:    4.5978964433
  - # 4
    frequency:   26.6567485602
  - # 5
    frequency:   59.7241181180
  - # 6
    frequency:   59.9645758111

- q-position: [    0.0600000,    0.0300000,    0.0000000 ]
  distance:    0.0129093
  band:
  - # 1
    frequency:   -1.0953148024
  - # 2
    frequency:   -0.7096423070
  - # 3
    frequency:    5.1685933590
  - # 4
    frequency:   26.6127555249
  - # 5
    frequency:   59.6479908812
  - # 6
    frequency:   59.9117825391

- q-position: [    0.0666667,    0.0333333,    0.0000000 ]
  distance:    0.0143437
  band:
  - # 1
    frequency:   -1.2133287194
  - # 2
    frequency:   -0.7608886893
  - # 3
    frequency:    5.7378673073
  - # 4
    frequency:   26.5636557278
  - # 5
    frequency:   59.5627348475
  - # 6
    frequency:   59.8531917746

- q-position: [    0.0733333,    0.0366667,    0.0000000 ]
  distance:    0.0157781
  band:
  - # 1
    frequency:   -1.3301764812
  - # 2
    frequency:   -0.8021995835
  - # 3
    frequency:    6.3055618148
  - # 4
    frequency:   26.5094720913
  - # 5
    frequency:   59.4684170236
  - # 6
    frequency:   59.7888169242

- q-position: [    0.0800000,    0.0400000,    0.0000000 ]
  distance:    0.0172124
  band:
  - # 1
    frequency:   -1.4457406025
  - # 2
    frequency:   -0.8317520552
  - # 3
    frequency:    6.8715209188
  - # 4
    frequency:   26.4502299295
  - # 5
    frequency:   59.3651247448
  - # 6
    frequency:   59.7186596014

- q-position: [    0.0866667,    0.0433333,    0.0000000 ]
  distance:    0.0186468
  band:
  - # 1
    frequency:   -1.5599033097
  - # 2
    frequency:   -0.8472584193
  - # 3
    frequency:    7.4355892148
  - # 4
    frequency:   26.3859569416
  - # 5
    frequency:   59.2529601789
  - # 6
    frequency:   59.6427151452

- q-position: [    0.0933333,    0.0466667,    0.0000000 ]
  distance:    0.0200812
  band:
  - # 1
    frequency:   -1.6725464957
  - # 2
    frequency:   -0.8457009369
  - # 3
    frequency:    7.9976119037
  - # 4
    frequency:   26.3166832052
  - # 5
    frequency:   59.1320364609
  - # 6
    frequency:   59.5609765080

- q-position: [    0.1000000,    0.0500000,    0.0000000 ]
  distance:    0.0215155
  band:
  - # 1
    frequency:   -1.7835516684
  - # 2
    frequency:   -0.8228265923
  - # 3
    frequency:    8.5574348384
  - # 4
    frequency:   26.2424411691
  - # 5
    frequency:   59.0024752481
  - # 6
    frequency:   59.4734367262

- q-position: [    0.1066667,    0.0533333,    0.0000000 ]
  distance:    0.0229499
  band:
  - # 1
    frequency:   -1.8927998943
  - # 2
    frequency:   -0.7720553115
  - # 3
    frequency:    9.1149045683
  - # 4
    frequency:   26.1632656451
  - # 5
    frequency:   58.8644053255
  - # 6
    frequency:   59.3800903414

- q-position: [    0.1133333,    0.0566667,    0.0000000 ]
  distance:    0.0243843
  band:
  - # 1
    frequency:   -2.0001717331
  - # 2
    frequency:   -0.6816210658
  - # 3
    frequency:    9.6698683837
  - # 4
    frequency:   26.0791937998
  - # 5
    frequency:   58.7179619135
  - # 6
    frequency:   59.2809341222

- q-position: [    0.1200000,    0.0600000,    0.0000000 ]
  distance:    0.0258186
  band:
  - # 1
    frequency:   -2.1055471657
  - # 2
    frequency:   -0.5240172243
  - # 3
    frequency:   10.2221743582
  - # 4
    frequency:   25.9902651455
  - # 5
    frequency:   58.5632864076
  - # 6
    frequency:   59.1759673551

- q-position: [    0.1266667,    0.0633333,    0.0000000 ]
  distance:    0.0272530
  band:
  - # 1
    frequency:   -2.2088055126
  - # 2
    frequency:   -0.1326795043
  - # 3
    frequency:   10.7716713903
  - # 4
    frequency:   25.8965215308
  - # 5
    frequency:   58.4005263662
  - # 6
    frequency:   59.0651918894

- q-position: [    0.1333333,    0.0666667,    0.0000000 ]
  distance:    0.0286874
  band:
  - # 1
    frequency:   -2.3098253420
  - # 2
    frequency:    0.5613650042
  - # 3
    frequency:   11.3182092429
  - # 4
    frequency:   25.7980071311
  - # 5
    frequency:   58.2298356260
  - # 6
    frequency:   58.9486120556

- q-position: [    0.1400000,    0.0700000,    0.0000000 ]
  distance:    0.0301217
  band:
  - # 1
    frequency:   -2.4084843664
  - # 2
    frequency:    0.8559767190
  - # 3
    frequency:   11.8616385822
  - # 4
    frequency:   25.6947684378
  - # 5
    frequency:   58.0513744774
  - # 6
    frequency:   58.8262345267

- q-position: [    0.1466667,    0.0733333,    0.0000000 ]
  distance:    0.0315561
  band:
  - # 1
    frequency:   -2.5046593261
  - # 2
    frequency:    1.1155605945
  - # 3
    frequency:   12.4018110136
  - # 4
    frequency:   25.5868542479
  - # 5
    frequency:   57.8653098555
  - # 6
    frequency:   58.6980681638

- q-position: [    0.1533333,    0.0766667,    0.0000000 ]
  distance:    0.0329905
  band:
  - # 1
    frequency:   -2.5982258584
  - # 2
    frequency:    1.3638635308
  - # 3
    frequency:   12.9385791174
  - # 4
    frequency:   25.4743156530
  - # 5
    frequency:   57.6718155281
  - # 6
    frequency:   58.5641238676

- q-position: [    0.1600000,    0.0800000,    0.0000000 ]
  distance:    0.0344249
  band:
  - # 1
    frequency:   -2.6890583495
  - # 2
    frequency:    1.6092059451
  - # 3
    frequency:   13.4717964811
  - # 4
    frequency:   25.3572060275
  - # 5
    frequency:   57.4710722692
  - # 6
    frequency:   58.4244144448

- q-position: [    0.1666667,    0.0833333,    0.0000000 ]
  distance:    0.0358592
  band:
  - # 1
    frequency:   -2.7770297678
  - # 2
    frequency:    1.8554946611
  - # 3
    frequency:   14.0013177307
  - # 4
    frequency:   25.2355810172
  - # 5
    frequency:   57.2632680133
  - # 6
    frequency:   58.2789544954

- q-position: [    0.1733333,    0.0866667,    0.0000000 ]
  distance:    0.0372936
  band:
  - # 1
    frequency:   -2.8620114763
  - # 2
    frequency:    2.1048502346
  - # 3
    frequency:   14.5269985597
  - # 4
    frequency:   25.1094985269
  - # 5
    frequency:   57.0485979909
  - # 6
    frequency:   58.1277603192

- q-position: [    0.1800000,    0.0900000,    0.0000000 ]
  distance:    0.0387280
  band:
  - # 1
    frequency:   -2.9438730193
  - # 2
    frequency:    2.3585240851
  - # 3
    frequency:   15.0486957552
  - # 4
    frequency:   24.9790187082
  - # 5
    frequency:   56.8272648457
  - # 6
    frequency:   57.9708498425

- q-position: [    0.1866667,    0.0933333,    0.0000000 ]
  distance:    0.0401623
  band:
  - # 1
    frequency:   -3.0224818826
  - # 2
    frequency:    2.6172917260
  - # 3
    frequency:   15.5662672227
  - # 4
    frequency:   24.8442039469
  - # 5
    frequency:   56.5994787349
  - # 6
    frequency:   57.8082425614

- q-position: [    0.1933333,    0.0966667,    0.0000000 ]
  distance:    0.0415967
  band:
  - # 1
    frequency:   -3.0977032205
  - # 2
    frequency:    2.8816453593
  - # 3
    frequency:   16.0795720079
  - # 4
    frequency:   24.7051188500
  - # 5
    frequency:   56.3654574152
  - # 6
    frequency:   57.6399595003

- q-position: [    0.2000000,    0.1000000,    0.0000000 ]
  distance:    0.0430311
  band:
  - # 1
    frequency:   -3.1693995473
  - # 2
    frequency:    3.1518975339
  - # 3
    frequency:   16.5884703156
  - # 4
    frequency:   24.5618302329
  - # 5
    frequency:   56.1254263154
  - # 6
    frequency:   57.4660231840

- q-position: [    0.2066667,    0.1033333,    0.0000000 ]
  distance:    0.0444654
  band:
  - # 1
    frequency:   -3.2374303856
  - # 2
    frequency:    3.4282410340
  - # 3
    frequency:   17.0928235267
  - # 4
    frequency:   24.4144071061
  - # 5
    frequency:   55.8796185972
  - # 6
    frequency:   57.2864576208

- q-position: [    0.2133333,    0.1066667,    0.0000000 ]
  distance:    0.0458998
  band:
  - # 1
    frequency:   -3.3016518657
  - # 2
    frequency:    3.7107854502
  - # 3
    frequency:   17.5924942121
  - # 4
    frequency:   24.2629206620
  - # 5
    frequency:   55.6282752069
  - # 6
    frequency:   57.1012882953

- q-position: [    0.2200000,    0.1100000,    0.0000000 ]
  distance:    0.0473342
  band:
  - # 1
    frequency:   -3.3619162691
  - # 2
    frequency:    3.9995805330
  - # 3
    frequency:   18.0873461435
  - # 4
    frequency:   24.1074442618
  - # 5
    frequency:   55.3716449164
  - # 6
    frequency:   56.9105421703

- q-position: [    0.2266667,    0.1133333,    0.0000000 ]
  distance:    0.0487685
  band:
  - # 1
    frequency:   -3.4180715042
  - # 2
    frequency:    4.2946316647
  - # 3
    frequency:   18.5772443021
  - # 4
    frequency:   23.9480534219
  - # 5
    frequency:   55.1099843562
  - # 6
    frequency:   56.7142476954

- q-position: [    0.2333333,    0.1166667,    0.0000000 ]
  distance:    0.0502029
  band:
  - # 1
    frequency:   -3.4699605058
  - # 2
    frequency:    4.5959104354
  - # 3
    frequency:   19.0620548840
  - # 4
    frequency:   23.7848258009
  - # 5
    frequency:   54.8435580401
  - # 6
    frequency:   56.5124348220

- q-position: [    0.2400000,    0.1200000,    0.0000000 ]
  distance:    0.0516373
  band:
  - # 1
    frequency:   -3.5174205418
  - # 2
    frequency:    4.9033620654
  - # 3
    frequency:   19.5416453023
  - # 4
    frequency:   23.6178411863
  - # 5
    frequency:   54.5726383814
  - # 6
    frequency:   56.3051350247

- q-position: [    0.2466667,    0.1233333,    0.0000000 ]
  distance:    0.0530717
  band:
  - # 1
    frequency:   -3.5602824128
  - # 2
    frequency:    5.2169107378
  - # 3
    frequency:   20.0158841876
  - # 4
    frequency:   23.4471814815
  - # 5
    frequency:   54.2975057008
  - # 6
    frequency:   56.0923813276

- q-position: [    0.2533333,    0.1266667,    0.0000000 ]
  distance:    0.0545060
  band:
  - # 1
    frequency:   -3.5983695224
  - # 2
    frequency:    5.5364635069
  - # 3
    frequency:   20.4846413846
  - # 4
    frequency:   23.2729306933
  - # 5
    frequency:   54.0184482257
  - # 6
    frequency:   55.8742083352

- q-position: [    0.2600000,    0.1300000,    0.0000000 ]
  distance:    0.0559404
  band:
  - # 1
    frequency:   -3.6314967929
  - # 2
    frequency:    5.8619132172
  - # 3
    frequency:   20.9477879471
  - # 4
    frequency:   23.0951749189
  - # 5
    frequency:   53.7357620801
  - # 6
    frequency:   55.6506522680

- q-position: [    0.2666667,    0.1333333,    0.0000000 ]
  distance:    0.0573748
  band:
  - # 1
    frequency:   -3.6594693965
  - # 2
    frequency:    6.1931407169
  - # 3
    frequency:   21.4051961302
  - # 4
    frequency:   22.9140023339
  - # 5
    frequency:   53.4497512643
  - # 6
    frequency:   55.4217510026

- q-position: [    0.2733333,    0.1366667,    0.0000000 ]
  distance:    0.0588091
  band:
  - # 1
    frequency:   -3.6820812606
  - # 2
    frequency:    6.5300165629
  - # 3
    frequency:   21.8567393811
  - # 4
    frequency:   22.7295031807
  - # 5
    frequency:   53.1607276238
  - # 6
    frequency:   55.1875441158

- q-position: [    0.2800000,    0.1400000,    0.0000000 ]
  distance:    0.0602435
  band:
  - # 1
    frequency:   -3.6991132984
  - # 2
    frequency:    6.8724023510
  - # 3
    frequency:   22.3022923280
  - # 4
    frequency:   22.5417697569
  - # 5
    frequency:   52.8690108051
  - # 6
    frequency:   54.9480729328

- q-position: [    0.2866667,    0.1433333,    0.0000000 ]
  distance:    0.0616779
  band:
  - # 1
    frequency:   -3.7103313018
  - # 2
    frequency:    7.2201517662
  - # 3
    frequency:   22.3508964047
  - # 4
    frequency:   22.7417307689
  - # 5
    frequency:   52.5749281982
  - # 6
    frequency:   54.7033805802

- q-position: [    0.2933333,    0.1466667,    0.0000000 ]
  distance:    0.0631122
  band:
  - # 1
    frequency:   -3.7154834137
  - # 2
    frequency:    7.5731114212
  - # 3
    frequency:   22.1569795008
  - # 4
    frequency:   23.1749316602
  - # 5
    frequency:   52.2788148623
  - # 6
    frequency:   54.4535120427

- q-position: [    0.3000000,    0.1500000,    0.0000000 ]
  distance:    0.0645466
  band:
  - # 1
    frequency:   -3.7142970749
  - # 2
    frequency:    7.9311215328
  - # 3
    frequency:   21.9601174470
  - # 4
    frequency:   23.6017731062
  - # 5
    frequency:   51.9810134346
  - # 6
    frequency:   54.1985142252

- q-position: [    0.3066667,    0.1533333,    0.0000000 ]
  distance:    0.0659810
  band:
  - # 1
    frequency:   -3.7064753059
  - # 2
    frequency:    8.2940164707
  - # 3
    frequency:   21.7604106617
  - # 4
    frequency:   24.0221343517
  - # 5
    frequency:   51.6818740172
  - # 6
    frequency:   53.9384360194

- q-position: [    0.3133333,    0.1566667,    0.0000000 ]
  distance:    0.0674153
  band:
  - # 1
    frequency:   -3.6916921378
  - # 2
    frequency:    8.6616252079
  - # 3
    frequency:   21.5579615721
  - # 4
    frequency:   24.4358957781
  - # 5
    frequency:   51.3817540414
  - # 6
    frequency:   53.6733283756

- q-position: [    0.3200000,    0.1600000,    0.0000000 ]
  distance:    0.0688497
  band:
  - # 1
    frequency:   -3.6695869418
  - # 2
    frequency:    9.0337716900
  - # 3
    frequency:   21.3528746082
  - # 4
    frequency:   24.8429389065
  - # 5
    frequency:   51.0810181044
  - # 6
    frequency:   53.4032443808

- q-position: [    0.3266667,    0.1633333,    0.0000000 ]
  distance:    0.0702841
  band:
  - # 1
    frequency:   -3.6397573164
  - # 2
    frequency:    9.4102751409
  - # 3
    frequency:   21.1452561968
  - # 4
    frequency:   25.2431464085
  - # 5
    frequency:   50.7800377758
  - # 6
    frequency:   53.1282393427

- q-position: [    0.3333333,    0.1666667,    0.0000000 ]
  distance:    0.0717185
  band:
  - # 1
    frequency:   -3.6017500530
  - # 2
    frequency:    9.7909503138
  - # 3
    frequency:   20.9352147582
  - # 4
    frequency:   25.6364021292
  - # 5
    frequency:   50.4791913677
  - # 6
    frequency:   52.8483708809

- q-position: [    0.3400000,    0.1700000,    0.0000000 ]
  distance:    0.0731528
  band:
  - # 1
    frequency:   -3.5550495063
  - # 2
    frequency:   10.1756076988
  - # 3
    frequency:   20.7228607031
  - # 4
    frequency:   26.0225911257
  - # 5
    frequency:   50.1788636648
  - # 6
    frequency:   52.5636990258

- q-position: [    0.3466667,    0.1733333,    0.0000000 ]
  distance:    0.0745872
  band:
  - # 1
    frequency:   -3.4990623910
  - # 2
    frequency:   10.5640536906
  - # 3
    frequency:   20.5083064323
  - # 4
    frequency:   26.4015997248
  - # 5
    frequency:   49.8794456082
  - # 6
    frequency:   52.2742863261

- q-position: [    0.3533333,    0.1766667,    0.0000000 ]
  distance:    0.0760216
  band:
  - # 1
    frequency:   -3.4330975582
  - # 2
    frequency:   10.9560907227
  - # 3
    frequency:   20.2916663374
  - # 4
    frequency:   26.7733156061
  - # 5
    frequency:   49.5813339246
  - # 6
    frequency:   51.9801979664

- q-position: [    0.3600000,    0.1800000,    0.0000000 ]
  distance:    0.0774559
  band:
  - # 1
    frequency:   -3.3563385548
  - # 2
    frequency:   11.3515173716
  - # 3
    frequency:   20.0730568039
  - # 4
    frequency:   27.1376279153
  - # 5
    frequency:   49.2849306956
  - # 6
    frequency:   51.6815018951

- q-position: [    0.3666667,    0.1833333,    0.0000000 ]
  distance:    0.0788903
  band:
  - # 1
    frequency:   -3.2678055253
  - # 2
    frequency:   11.7501284320
  - # 3
    frequency:   19.8525962171
  - # 4
    frequency:   27.4944274172
  - # 5
    frequency:   48.9906428564
  - # 6
    frequency:   51.3782689655

- q-position: [    0.3733333,    0.1866667,    0.0000000 ]
  distance:    0.0803247
  band:
  - # 1
    frequency:   -3.1663008894
  - # 2
    frequency:   12.1517149652
  - # 3
    frequency:   19.6304049695
  - # 4
    frequency:   27.8436066939
  - # 5
    frequency:   48.6988816139
  - # 6
    frequency:   51.0705730904

- q-position: [    0.3800000,    0.1900000,    0.0000000 ]
  distance:    0.0817590
  band:
  - # 1
    frequency:   -3.0503294015
  - # 2
    frequency:   12.5560643211
  - # 3
    frequency:   19.4066054722
  - # 4
    frequency:   28.1850604010
  - # 5
    frequency:   48.4100617741
  - # 6
    frequency:   50.7584914129

- q-position: [    0.3866667,    0.1933333,    0.0000000 ]
  distance:    0.0831934
  band:
  - # 1
    frequency:   -2.9179759840
  - # 2
    frequency:   12.9629601335
  - # 3
    frequency:   19.1813221693
  - # 4
    frequency:   28.5186855902
  - # 5
    frequency:   48.1246009648
  - # 6
    frequency:   50.4421044957

- q-position: [    0.3933333,    0.1966667,    0.0000000 ]
  distance:    0.0846278
  band:
  - # 1
    frequency:   -2.7667102066
  - # 2
    frequency:   13.3721822869
  - # 3
    frequency:   18.9546815552
  - # 4
    frequency:   28.8443821140
  - # 5
    frequency:   47.8429187406
  - # 6
    frequency:   50.1214965308

- q-position: [    0.4000000,    0.2000000,    0.0000000 ]
  distance:    0.0860621
  band:
  - # 1
    frequency:   -2.5930547556
  - # 2
    frequency:   13.7835068553
  - # 3
    frequency:   18.7268121977
  - # 4
    frequency:   29.1620531236
  - # 5
    frequency:   47.5654355532
  - # 6
    frequency:   49.7967555746

- q-position: [    0.4066667,    0.2033333,    0.0000000 ]
  distance:    0.0874965
  band:
  - # 1
    frequency:   -2.3919797552
  - # 2
    frequency:   14.1967060079
  - # 3
    frequency:   18.4978447643
  - # 4
    frequency:   29.4716056789
  - # 5
    frequency:   47.2925715720
  - # 6
    frequency:   49.4679738097

- q-position: [    0.4133333,    0.2066667,    0.0000000 ]
  distance:    0.0889309
  band:
  - # 1
    frequency:   -2.1556793431
  - # 2
    frequency:   14.6115478805
  - # 3
    frequency:   18.2679120552
  - # 4
    frequency:   29.7729514847
  - # 5
    frequency:   47.0247453348
  - # 6
    frequency:   49.1352478402

- q-position: [    0.4200000,    0.2100000,    0.0000000 ]
  distance:    0.0903652
  band:
  - # 1
    frequency:   -1.8707179522
  - # 2
    frequency:   15.0277964084
  - # 3
    frequency:   18.0371490418
  - # 4
    frequency:   30.0660077737
  - # 5
    frequency:   46.7623722107
  - # 6
    frequency:   48.7986790247

- q-position: [    0.4266667,    0.2133333,    0.0000000 ]
  distance:    0.0917996
  band:
  - # 1
    frequency:   -1.5096652849
  - # 2
    frequency:   15.4452111147
  - # 3
    frequency:   17.8056929132
  - # 4
    frequency:   30.3506983536
  - # 5
    frequency:   46.5058626553
  - # 6
    frequency:   48.4583738549

- q-position: [    0.4333333,    0.2166667,    0.0000000 ]
  distance:    0.0932340
  band:
  - # 1
    frequency:   -0.9925847717
  - # 2
    frequency:   15.8635468496
  - # 3
    frequency:   17.5736831305
  - # 4
    frequency:   30.6269548358
  - # 5
    frequency:   46.2556202373
  - # 6
    frequency:   48.1144443870

- q-position: [    0.4400000,    0.2200000,    0.0000000 ]
  distance:    0.0946684
  band:
  - # 1
    frequency:    0.6181507272
  - # 2
    frequency:   16.2825534719
  - # 3
    frequency:   17.3412614923
  - # 4
    frequency:   30.8947180648
  - # 5
    frequency:   46.0120394177
  - # 6
    frequency:   47.7670087400

- q-position: [    0.4466667,    0.2233333,    0.0000000 ]
  distance:    0.0961027
  band:
  - # 1
    frequency:    1.3501391856
  - # 2
    frequency:   16.7019754651
  - # 3
    frequency:   17.1085722102
  - # 4
    frequency:   31.1539397608
  - # 5
    frequency:   45.7755030607
  - # 6
    frequency:   47.4161916743

- q-position: [    0.4533333,    0.2266667,    0.0000000 ]
  distance:    0.0975371
  band:
  - # 1
    frequency:    1.8267150928
  - # 2
    frequency:   16.8757620004
  - # 3
    frequency:   17.1215514768
  - # 4
    frequency:   31.4045843857
  - # 5
    frequency:   45.5463796560
  - # 6
    frequency:   47.0621252765

- q-position: [    0.4600000,    0.2300000,    0.0000000 ]
  distance:    0.0989715
  band:
  - # 1
    frequency:    2.2189671341
  - # 2
    frequency:   16.6429801900
  - # 3
    frequency:   17.5410137688
  - # 4
    frequency:   31.6466312356
  - # 5
    frequency:   45.3250202251
  - # 6
    frequency:   46.7049497900

- q-position: [    0.4666667,    0.2333333,    0.0000000 ]
  distance:    0.1004058
  band:
  - # 1
    frequency:    2.5657696485
  - # 2
    frequency:   16.4103788449
  - # 3
    frequency:   17.9600875627
  - # 4
    frequency:   31.8800767541
  - # 5
    frequency:   45.1117548594
  - # 6
    frequency:   46.3448146667

- q-position: [    0.4733333,    0.2366667,    0.0000000 ]
  distance:    0.1018402
  band:
  - # 1
    frequency:    2.8834572432
  - # 2
    frequency:   16.1781129218
  - # 3
    frequency:   18.3784902622
  - # 4
    frequency:   32.1049370464
  - # 5
    frequency:   44.9068887696
  - # 6
    frequency:   45.9818800041

- q-position: [    0.4800000,    0.2400000,    0.0000000 ]
  distance:    0.1032746
  band:
  - # 1
    frequency:    3.1806402332
  - # 2
    frequency:   15.9463404491
  - # 3
    frequency:   18.7959305298
  - # 4
    frequency:   32.3212505630
  - # 5
    frequency:   44.7106974776
  - # 6
    frequency:   45.6163187929

- q-position: [    0.4866667,    0.2433333,    0.0000000 ]
  distance:    0.1047089
  band:
  - # 1
    frequency:    3.4624631587
  - # 2
    frequency:   15.7152227454
  - # 3
    frequency:   19.2121071911
  - # 4
    frequency:   32.5290809002
  - # 5
    frequency:   44.5234198928
  - # 6
    frequency:   45.2483213208

- q-position: [    0.4933333,    0.2466667,    0.0000000 ]
  distance:    0.1061433
  band:
  - # 1
    frequency:    3.7322552936
  - # 2
    frequency:   15.4849246826
  - # 3
    frequency:   19.6267079333
  - # 4
    frequency:   32.7285196467
  - # 5
    frequency:   44.3452438455
  - # 6
    frequency:   44.8781072656

- q-position: [    0.5000000,    0.2500000,    0.0000000 ]
  distance:    0.1075777
  band:
  - # 1
    frequency:    3.9922923965
  - # 2
    frequency:   15.2556150058
  - # 3
    frequency:   20.0394077585
  - # 4
    frequency:   32.9196891834
  - # 5
    frequency:   44.1762496874
  - # 6
    frequency:   44.5059800100

- q-position: [    0.5066667,    0.2533333,    0.0000000 ]
  distance:    0.1090120
  band:
  - # 1
    frequency:    4.2441918923
  - # 2
    frequency:   15.0274667233
  - # 3
    frequency:   20.4498671426
  - # 4
    frequency:   33.1027453226
  - # 5
    frequency:   44.0157528504
  - # 6
    frequency:   44.1329824541

- q-position: [    0.5133333,    0.2566667,    0.0000000 ]
  distance:    0.1104464
  band:
  - # 1
    frequency:    4.4891359217
  - # 2
    frequency:   14.8006575860
  - # 3
    frequency:   20.8577298415
  - # 4
    frequency:   33.2778796527
  - # 5
    frequency:   43.7534569724
  - # 6
    frequency:   43.8697429179

- q-position: [    0.5200000,    0.2600000,    0.0000000 ]
  distance:    0.1118808
  band:
  - # 1
    frequency:    4.7280054899
  - # 2
    frequency:   14.5753706809
  - # 3
    frequency:   21.2626202698
  - # 4
    frequency:   33.4453214410
  - # 5
    frequency:   43.3776153558
  - # 6
    frequency:   43.7283135969

- q-position: [    0.5266667,    0.2633333,    0.0000000 ]
  distance:    0.1133152
  band:
  - # 1
    frequency:    4.9614651912
  - # 2
    frequency:   14.3517951694
  - # 3
    frequency:   21.6641403665
  - # 4
    frequency:   33.6053389357
  - # 5
    frequency:   42.9997436124
  - # 6
    frequency:   43.5974589710

- q-position: [    0.5333333,    0.2666667,    0.0000000 ]
  distance:    0.1147495
  band:
  - # 1
    frequency:    5.1900187684
  - # 2
    frequency:   14.1301272144
  - # 3
    frequency:   22.0618658360
  - # 4
    frequency:   33.7582399136
  - # 5
    frequency:   42.6210295442
  - # 6
    frequency:   43.4762483907

- q-position: [    0.5400000,    0.2700000,    0.0000000 ]
  distance:    0.1161839
  band:
  - # 1
    frequency:    5.4140465636
  - # 2
    frequency:   13.9105711513
  - # 3
    frequency:   22.4553416339
  - # 4
    frequency:   33.9043713240
  - # 5
    frequency:   42.2419293438
  - # 6
    frequency:   43.3644640436

- q-position: [    0.5466667,    0.2733333,    0.0000000 ]
  distance:    0.1176183
  band:
  - # 1
    frequency:    5.6338311918
  - # 2
    frequency:   13.6933409809
  - # 3
    frequency:   22.8440765345
  - # 4
    frequency:   34.0441179055
  - # 5
    frequency:   41.8628693984
  - # 6
    frequency:   43.2619053154

- q-position: [    0.5533333,    0.2766667,    0.0000000 ]
  distance:    0.1190526
  band:
  - # 1
    frequency:    5.8495751953
  - # 2
    frequency:   13.4786622857
  - # 3
    frequency:   23.2275365852
  - # 4
    frequency:   34.1778996776
  - # 5
    frequency:   41.4843077246
  - # 6
    frequency:   43.1683358183

- q-position: [    0.5600000,    0.2800000,    0.0000000 ]
  distance:    0.1204870
  band:
  - # 1
    frequency:    6.0614129477
  - # 2
    frequency:   13.2667747135
  - # 3
    frequency:   23.6051372101
  - # 4
    frequency:   34.3061682425
  - # 5
    frequency:   41.1067534626
  - # 6
    frequency:   43.0834749676

- q-position: [    0.5666667,    0.2833333,    0.0000000 ]
  distance:    0.1219214
  band:
  - # 1
    frequency:    6.2694181665
  - # 2
    frequency:   13.0579352218
  - # 3
    frequency:   23.9762336836
  - # 4
    frequency:   34.4294018627
  - # 5
    frequency:   40.7307805647
  - # 6
    frequency:   43.0069982953

- q-position: [    0.5733333,    0.2866667,    0.0000000 ]
  distance:    0.1233557
  band:
  - # 1
    frequency:    6.4736077939
  - # 2
    frequency:   12.8524223562
  - # 3
    frequency:   24.3401096474
  - # 4
    frequency:   34.5480992929
  - # 5
    frequency:   40.3570417735
  - # 6
    frequency:   42.9385407616

- q-position: [    0.5800000,    0.2900000,    0.0000000 ]
  distance:    0.1247901
  band:
  - # 1
    frequency:    6.6739425629
  - # 2
    frequency:   12.6505419437
  - # 3
    frequency:   24.6959633002
  - # 4
    frequency:   34.6627723289
  - # 5
    frequency:   39.9862847872
  - # 6
    frequency:   42.8777015780

- q-position: [    0.5866667,    0.2933333,    0.0000000 ]
  distance:    0.1262245
  band:
  - # 1
    frequency:    6.8703241944
  - # 2
    frequency:   12.4526347409
  - # 3
    frequency:   25.0428908689
  - # 4
    frequency:   34.7739369576
  - # 5
    frequency:   39.6193717192
  - # 6
    frequency:   42.8240499541

- q-position: [    0.5933333,    0.2966667,    0.0000000 ]