8    
2    

1    
  0.0041367178544304  -0.0023883351602644   0.0194212105841804
  -0.2474578894    0.0903083900   -0.0924661622
  -0.0792569965   -0.0056568136   -0.0296774790
  -0.1010503154    0.0321893988   -0.0295340500
  -0.1228746614   -0.0055725703   -0.0300022287
   0.1641769936   -0.0226476635    0.0536836445
   0.1460411656   -0.0533728280    0.0552641676
   0.1287025946   -0.0221774693    0.0547472976
   0.1117191086   -0.0130704444    0.0179848104

1    
 -0.0041367178544304   0.0023883351602644  -0.0194212105841804
   0.0690446658   -0.0914200331    0.0924826655
  -0.0985897669    0.0055798911    0.0296769089
  -0.0767621693   -0.0321309841    0.0298197033
  -0.0548653336    0.0055922199    0.0297161793
   0.0133404632    0.0226987507   -0.0547429751
   0.0319304928    0.0531759821   -0.0542215760
   0.0497950665    0.0233873180   -0.0547466602
   0.0661065816    0.0131168554   -0.0179842458
