phonopy:
  version: "2.40.0"
  calculator: siesta
  frequency_unit_conversion_factor: 15.633302
  symmetry_tolerance: 1.00000e-05
  configuration:
    cell_filename: "relaxed_graphene.fdf"
    create_displacements: ".true."
    dim: "2 2 1"
    calculator: "siesta"

physical_unit:
  atomic_mass: "AMU"
  length: "au"

space_group:
  type: "Cmmm"
  number: 65
  Hall_symbol: "-C 2 2"

supercell_matrix:
- [   2,   0,   0 ]
- [   0,   2,   0 ]
- [   0,   0,   1 ]

primitive_cell:
  lattice:
  - [     4.025116671915840,    -2.323902187674509,     0.000000000000000 ] # a
  - [     4.025116671915840,     2.323902187674509,     0.000000000000000 ] # b
  - [     0.000000000000000,     0.000000000000000,    37.794522740993806 ] # c
  points:
  - symbol: C # 1
    coordinates: [  0.000000000000000,  0.000000000000000,  0.000000000000000 ]
    mass: 12.010700
  - symbol: C # 2
    coordinates: [  0.333098591549296,  0.333098591549296,  0.000000000000000 ]
    mass: 12.010700
  reciprocal_lattice: # without 2pi
  - [     0.124220001742711,    -0.215155354924960,     0.000000000000000 ] # a*
  - [     0.124220001742711,     0.215155354924960,     0.000000000000000 ] # b*
  - [     0.000000000000000,     0.000000000000000,     0.026458860371197 ] # c*

unit_cell:
  lattice:
  - [     4.025116671915840,    -2.323902187674509,     0.000000000000000 ] # a
  - [     4.025116671915840,     2.323902187674509,     0.000000000000000 ] # b
  - [     0.000000000000000,     0.000000000000000,    37.794522740993806 ] # c
  points:
  - symbol: C # 1
    coordinates: [  0.000000000000000,  0.000000000000000,  0.000000000000000 ]
    mass: 12.010700
    reduced_to: 1
  - symbol: C # 2
    coordinates: [  0.333098591549296,  0.333098591549296,  0.000000000000000 ]
    mass: 12.010700
    reduced_to: 2

supercell:
  lattice:
  - [     8.050233343831680,    -4.647804375349017,     0.000000000000000 ] # a
  - [     8.050233343831680,     4.647804375349017,     0.000000000000000 ] # b
  - [     0.000000000000000,     0.000000000000000,    37.794522740993806 ] # c
  points:
  - symbol: C # 1
    coordinates: [  0.000000000000000,  0.000000000000000,  0.000000000000000 ]
    mass: 12.010700
    reduced_to: 1
  - symbol: C # 2
    coordinates: [  0.500000000000000,  0.000000000000000,  0.000000000000000 ]
    mass: 12.010700
    reduced_to: 1
  - symbol: C # 3
    coordinates: [  0.000000000000000,  0.500000000000000,  0.000000000000000 ]
    mass: 12.010700
    reduced_to: 1
  - symbol: C # 4
    coordinates: [  0.500000000000000,  0.500000000000000,  0.000000000000000 ]
    mass: 12.010700
    reduced_to: 1
  - symbol: C # 5
    coordinates: [  0.166549295774648,  0.166549295774648,  0.000000000000000 ]
    mass: 12.010700
    reduced_to: 5
  - symbol: C # 6
    coordinates: [  0.666549295774648,  0.166549295774648,  0.000000000000000 ]
    mass: 12.010700
    reduced_to: 5
  - symbol: C # 7
    coordinates: [  0.166549295774648,  0.666549295774648,  0.000000000000000 ]
    mass: 12.010700
    reduced_to: 5
  - symbol: C # 8
    coordinates: [  0.666549295774648,  0.666549295774648,  0.000000000000000 ]
    mass: 12.010700
    reduced_to: 5

displacements:
- atom:    1
  displacement:
    [   0.0041367178544304, -0.0023883351602644,  0.0194212105841804 ]
- atom:    1
  displacement:
    [  -0.0041367178544304,  0.0023883351602644, -0.0194212105841804 ]
