calculator: siesta
length_unit: au
nqpoint: 303    
npath: 3      
segment_nqpoint:
- 101
- 101
- 101
labels:
- [ 'G', 'K' ]
- [ 'K', 'M' ]
- [ 'M', '$\Gamma$' ]
reciprocal_lattice:
- [   0.12422000,  -0.21515535,   0.00000000 ] # a*
- [   0.12422000,   0.21515535,   0.00000000 ] # b*
- [   0.00000000,   0.00000000,   0.02645886 ] # c*
natom: 2      
lattice:
- [     4.025116671915840,    -2.323902187674509,     0.000000000000000 ] # a
- [     4.025116671915840,     2.323902187674509,     0.000000000000000 ] # b
- [     0.000000000000000,     0.000000000000000,    37.794522740993806 ] # c
points:
- symbol: C # 1
  coordinates: [  0.000000000000000,  0.000000000000000,  0.000000000000000 ]
  mass: 12.010700
- symbol: C # 2
  coordinates: [  0.333098591549296,  0.333098591549296,  0.000000000000000 ]
  mass: 12.010700

phonon:
- q-position: [    0.0000000,    0.0000000,    0.0000000 ]
  distance:    0.0000000
  band:
  - # 1
    frequency:  -26.8091517395
  - # 2
    frequency:  -26.4388593748
  - # 3
    frequency:    0.0004888131
  - # 4
    frequency:    0.0021182788
  - # 5
    frequency:    0.0026691265
  - # 6
    frequency:   24.3189877918

- q-position: [    0.0066667,    0.0033333,    0.0000000 ]
  distance:    0.0014344
  band:
  - # 1
    frequency:  -26.7103032654
  - # 2
    frequency:  -26.2963894474
  - # 3
    frequency:   -0.0752284811
  - # 4
    frequency:    0.7695668599
  - # 5
    frequency:    1.6247069140
  - # 6
    frequency:   24.3183970888

- q-position: [    0.0133333,    0.0066667,    0.0000000 ]
  distance:    0.0028687
  band:
  - # 1
    frequency:  -26.4146855945
  - # 2
    frequency:  -25.8658712423
  - # 3
    frequency:   -0.1501435517
  - # 4
    frequency:    1.5388520595
  - # 5
    frequency:    3.2629555645
  - # 6
    frequency:   24.3166236590

- q-position: [    0.0200000,    0.0100000,    0.0000000 ]
  distance:    0.0043031
  band:
  - # 1
    frequency:  -25.9253226763
  - # 2
    frequency:  -25.1374713075
  - # 3
    frequency:   -0.2244248926
  - # 4
    frequency:    2.3080298894
  - # 5
    frequency:    4.9289564198
  - # 6
    frequency:   24.3136635482

- q-position: [    0.0266667,    0.0133333,    0.0000000 ]
  distance:    0.0057375
  band:
  - # 1
    frequency:  -25.2480725325
  - # 2
    frequency:  -24.0929262804
  - # 3
    frequency:   -0.2977522018
  - # 4
    frequency:    3.0783402794
  - # 5
    frequency:    6.6380725213
  - # 6
    frequency:   24.3095101938

- q-position: [    0.0333333,    0.0166667,    0.0000000 ]
  distance:    0.0071718
  band:
  - # 1
    frequency:  -24.3928758152
  - # 2
    frequency:  -22.7019818782
  - # 3
    frequency:   -0.3697998002
  - # 4
    frequency:    3.8532207580
  - # 5
    frequency:    8.4069018633
  - # 6
    frequency:   24.3041544655

- q-position: [    0.0400000,    0.0200000,    0.0000000 ]
  distance:    0.0086062
  band:
  - # 1
    frequency:  -23.3754067383
  - # 2
    frequency:  -20.9153550094
  - # 3
    frequency:   -0.4402349611
  - # 4
    frequency:    4.6407185541
  - # 5
    frequency:   10.2525341511
  - # 6
    frequency:   24.2975847210

- q-position: [    0.0466667,    0.0233333,    0.0000000 ]
  distance:    0.0100406
  band:
  - # 1
    frequency:  -22.2186673303
  - # 2
    frequency:  -18.6502132480
  - # 3
    frequency:   -0.5087157837
  - # 4
    frequency:    5.4595445411
  - # 5
    frequency:   12.1904867277
  - # 6
    frequency:   24.2897868755

- q-position: [    0.0533333,    0.0266667,    0.0000000 ]
  distance:    0.0114750
  band:
  - # 1
    frequency:  -20.9534752270
  - # 2
    frequency:  -15.7574550250
  - # 3
    frequency:   -0.5748887212
  - # 4
    frequency:    6.3572719895
  - # 5
    frequency:   14.2310692103
  - # 6
    frequency:   24.2807444840

- q-position: [    0.0600000,    0.0300000,    0.0000000 ]
  distance:    0.0129093
  band:
  - # 1
    frequency:  -19.6163783383
  - # 2
    frequency:  -11.9409729239
  - # 3
    frequency:   -0.6383856806
  - # 4
    frequency:    7.4787398836
  - # 5
    frequency:   16.3749060941
  - # 6
    frequency:   24.2704388334

- q-position: [    0.0666667,    0.0333333,    0.0000000 ]
  distance:    0.0143437
  band:
  - # 1
    frequency:  -18.2442608120
  - # 2
    frequency:   -6.5680795231
  - # 3
    frequency:   -0.6988205585
  - # 4
    frequency:    9.3542977008
  - # 5
    frequency:   18.6098183243
  - # 6
    frequency:   24.2588490435

- q-position: [    0.0733333,    0.0366667,    0.0000000 ]
  distance:    0.0157781
  band:
  - # 1
    frequency:  -16.8671962121
  - # 2
    frequency:   -0.7557850295
  - # 3
    frequency:    4.1925277807
  - # 4
    frequency:   12.8909960159
  - # 5
    frequency:   20.9116325626
  - # 6
    frequency:   24.2459521744

- q-position: [    0.0800000,    0.0400000,    0.0000000 ]
  distance:    0.0172124
  band:
  - # 1
    frequency:  -15.5030371378
  - # 2
    frequency:   -0.8088433345
  - # 3
    frequency:    6.5723082683
  - # 4
    frequency:   16.9350030940
  - # 5
    frequency:   23.2492595081
  - # 6
    frequency:   24.2317233379

- q-position: [    0.0866667,    0.0433333,    0.0000000 ]
  distance:    0.0186468
  band:
  - # 1
    frequency:  -14.1561449212
  - # 2
    frequency:   -0.8575257149
  - # 3
    frequency:    7.6601308017
  - # 4
    frequency:   20.5612286989
  - # 5
    frequency:   24.2161358110
  - # 6
    frequency:   25.5912481422

- q-position: [    0.0933333,    0.0466667,    0.0000000 ]
  distance:    0.0200812
  band:
  - # 1
    frequency:  -12.8194508719
  - # 2
    frequency:   -0.9013199890
  - # 3
    frequency:    8.4388277016
  - # 4
    frequency:   23.7742019397
  - # 5
    frequency:   24.1991611482
  - # 6
    frequency:   27.9104224217

- q-position: [    0.1000000,    0.0500000,    0.0000000 ]
  distance:    0.0215155
  band:
  - # 1
    frequency:  -11.4771065929
  - # 2
    frequency:   -0.9396605289
  - # 3
    frequency:    9.0873216620
  - # 4
    frequency:   24.1807692918
  - # 5
    frequency:   26.6585314607
  - # 6
    frequency:   30.1853163056

- q-position: [    0.1066667,    0.0533333,    0.0000000 ]
  distance:    0.0229499
  band:
  - # 1
    frequency:  -10.1051918053
  - # 2
    frequency:   -0.9719135258
  - # 3
    frequency:    9.6608080297
  - # 4
    frequency:   24.1609286773
  - # 5
    frequency:   29.2744353834
  - # 6
    frequency:   32.3992664083

- q-position: [    0.1133333,    0.0566667,    0.0000000 ]
  distance:    0.0243843
  band:
  - # 1
    frequency:   -8.6682064383
  - # 2
    frequency:   -0.9973568133
  - # 3
    frequency:   10.1818283492
  - # 4
    frequency:   24.1396063310
  - # 5
    frequency:   31.6624241404
  - # 6
    frequency:   34.5387526488

- q-position: [    0.1200000,    0.0600000,    0.0000000 ]
  distance:    0.0258186
  band:
  - # 1
    frequency:   -7.1060881898
  - # 2
    frequency:   -1.0151514760
  - # 3
    frequency:   10.6616089153
  - # 4
    frequency:   24.1167679603
  - # 5
    frequency:   33.8512489598
  - # 6
    frequency:   36.5922161694

- q-position: [    0.1266667,    0.0633333,    0.0000000 ]
  distance:    0.0272530
  band:
  - # 1
    frequency:   -5.2879285264
  - # 2
    frequency:   -1.0243006049
  - # 3
    frequency:   11.1067964693
  - # 4
    frequency:   24.0923780328
  - # 5
    frequency:   35.8623008537
  - # 6
    frequency:   38.5497357358

- q-position: [    0.1333333,    0.0666667,    0.0000000 ]
  distance:    0.0286874
  band:
  - # 1
    frequency:   -2.7123409034
  - # 2
    frequency:   -1.0235870692
  - # 3
    frequency:   11.5220434728
  - # 4
    frequency:   24.0663998443
  - # 5
    frequency:   37.7117236309
  - # 6
    frequency:   40.4032007139

- q-position: [    0.1400000,    0.0700000,    0.0000000 ]
  distance:    0.0301217
  band:
  - # 1
    frequency:   -1.0114752130
  - # 2
    frequency:    3.3858513883
  - # 3
    frequency:   11.9111493276
  - # 4
    frequency:   24.0387955751
  - # 5
    frequency:   39.4116000728
  - # 6
    frequency:   42.1464583180

- q-position: [    0.1466667,    0.0733333,    0.0000000 ]
  distance:    0.0315561
  band:
  - # 1
    frequency:   -0.9859464031
  - # 2
    frequency:    5.3502238678
  - # 3
    frequency:   12.2776196164
  - # 4
    frequency:   24.0095263326
  - # 5
    frequency:   40.9708813414
  - # 6
    frequency:   43.7752122765

- q-position: [    0.1533333,    0.0766667,    0.0000000 ]
  distance:    0.0329905
  band:
  - # 1
    frequency:   -0.9442028376
  - # 2
    frequency:    6.6514703489
  - # 3
    frequency:   12.6249615804
  - # 4
    frequency:   23.9785521811
  - # 5
    frequency:   42.3962190624
  - # 6
    frequency:   45.2867380662

- q-position: [    0.1600000,    0.0800000,    0.0000000 ]
  distance:    0.0344249
  band:
  - # 1
    frequency:   -0.8820784616
  - # 2
    frequency:    7.6440044202
  - # 3
    frequency:   12.9568463790
  - # 4
    frequency:   23.9458321594
  - # 5
    frequency:   43.6926759500
  - # 6
    frequency:   46.6795539233

- q-position: [    0.1666667,    0.0833333,    0.0000000 ]
  distance:    0.0358592
  band:
  - # 1
    frequency:   -0.7926888925
  - # 2
    frequency:    8.4445660759
  - # 3
    frequency:   13.2771953554
  - # 4
    frequency:   23.9113242851
  - # 5
    frequency:   44.8642875840
  - # 6
    frequency:   47.9531368198

- q-position: [    0.1733333,    0.0866667,    0.0000000 ]
  distance:    0.0372936
  band:
  - # 1
    frequency:   -0.6625599949
  - # 2
    frequency:    9.1108889151
  - # 3
    frequency:   13.5902157512
  - # 4
    frequency:   23.8749855480
  - # 5
    frequency:   45.9144821397
  - # 6
    frequency:   49.1077117289

- q-position: [    0.1800000,    0.0900000,    0.0000000 ]
  distance:    0.0387280
  band:
  - # 1
    frequency:   -0.4544256259
  - # 2
    frequency:    9.6777113483
  - # 3
    frequency:   13.9003963725
  - # 4
    frequency:   23.8367718938
  - # 5
    frequency:   46.8463844981
  - # 6
    frequency:   50.1441089107

- q-position: [    0.1866667,    0.0933333,    0.0000000 ]
  distance:    0.0401623
  band:
  - # 1
    frequency:    0.2693860990
  - # 2
    frequency:   10.1686794843
  - # 3
    frequency:   14.2124665631
  - # 4
    frequency:   23.7966381980
  - # 5
    frequency:   47.6630343682
  - # 6
    frequency:   51.0636730334

- q-position: [    0.1933333,    0.0966667,    0.0000000 ]
  distance:    0.0415967
  band:
  - # 1
    frequency:    0.6338118449
  - # 2
    frequency:   10.6013220129
  - # 3
    frequency:   14.5313190228
  - # 4
    frequency:   23.7545382353
  - # 5
    frequency:   48.3675435223
  - # 6
    frequency:   51.8682079969

- q-position: [    0.2000000,    0.1000000,    0.0000000 ]
  distance:    0.0430311
  band:
  - # 1
    frequency:    0.8856821903
  - # 2
    frequency:   10.9894357004
  - # 3
    frequency:   14.8618971317
  - # 4
    frequency:   23.7104246429
  - # 5
    frequency:   48.9632109829
  - # 6
    frequency:   52.5599448364

- q-position: [    0.2066667,    0.1033333,    0.0000000 ]
  distance:    0.0444654
  band:
  - # 1
    frequency:    1.1064329815
  - # 2
    frequency:   11.3443295660
  - # 3
    frequency:   15.2090496772
  - # 4
    frequency:   23.6642488838
  - # 5
    frequency:   49.4536095000
  - # 6
    frequency:   53.1415238139

- q-position: [    0.2133333,    0.1066667,    0.0000000 ]
  distance:    0.0458998
  band:
  - # 1
    frequency:    1.3131851401
  - # 2
    frequency:   11.6755054564
  - # 3
    frequency:   15.5773594037
  - # 4
    frequency:   23.6159612101
  - # 5
    frequency:   49.8426525186
  - # 6
    frequency:   53.6159847524

- q-position: [    0.2200000,    0.1100000,    0.0000000 ]
  distance:    0.0473342
  band:
  - # 1
    frequency:    1.5128234763
  - # 2
    frequency:   11.9910369350
  - # 3
    frequency:   15.9709556338
  - # 4
    frequency:   23.5655106319
  - # 5
    frequency:   50.1346479038
  - # 6
    frequency:   53.9867617371

- q-position: [    0.2266667,    0.1133333,    0.0000000 ]
  distance:    0.0487685
  band:
  - # 1
    frequency:    1.7088304487
  - # 2
    frequency:   12.2977777005
  - # 3
    frequency:   16.3933242615
  - # 4
    frequency:   23.5128448924
  - # 5
    frequency:   50.3343426630
  - # 6
    frequency:   54.2576796800

- q-position: [    0.2333333,    0.1166667,    0.0000000 ]
  distance:    0.0502029
  band:
  - # 1
    frequency:    1.9031976244
  - # 2
    frequency:   12.6014711590
  - # 3
    frequency:   16.8471298338
  - # 4
    frequency:   23.4579104552
  - # 5
    frequency:   50.4469614698
  - # 6
    frequency:   54.4329511169

- q-position: [    0.2400000,    0.1200000,    0.0000000 ]
  distance:    0.0516373
  band:
  - # 1
    frequency:    2.0971515371
  - # 2
    frequency:   12.9068034611
  - # 3
    frequency:   17.3340637322
  - # 4
    frequency:   23.4006525047
  - # 5
    frequency:   50.4782407131
  - # 6
    frequency:   54.5171721357

- q-position: [    0.2466667,    0.1233333,    0.0000000 ]
  distance:    0.0530717
  band:
  - # 1
    frequency:    2.2914828846
  - # 2
    frequency:   13.2174268662
  - # 3
    frequency:   17.8547297372
  - # 4
    frequency:   23.3410149654
  - # 5
    frequency:   50.4344588822
  - # 6
    frequency:   54.5153166537

- q-position: [    0.2533333,    0.1266667,    0.0000000 ]
  distance:    0.0545060
  band:
  - # 1
    frequency:    2.4867146671
  - # 2
    frequency:   13.5359714137
  - # 3
    frequency:   18.4085741298
  - # 4
    frequency:   23.2789405418
  - # 5
    frequency:   50.3224631912
  - # 6
    frequency:   54.4327284235

- q-position: [    0.2600000,    0.1300000,    0.0000000 ]
  distance:    0.0559404
  band:
  - # 1
    frequency:    2.6831957742
  - # 2
    frequency:   13.8640571807
  - # 3
    frequency:   18.9938629286
  - # 4
    frequency:   23.2143707827
  - # 5
    frequency:   50.1496913117
  - # 6
    frequency:   54.2751102257

- q-position: [    0.2666667,    0.1333333,    0.0000000 ]
  distance:    0.0573748
  band:
  - # 1
    frequency:    2.8811566056
  - # 2
    frequency:   14.2023153159
  - # 3
    frequency:   19.6077049345
  - # 4
    frequency:   23.1472461739
  - # 5
    frequency:   49.9241857808
  - # 6
    frequency:   54.0485097168

- q-position: [    0.2733333,    0.1366667,    0.0000000 ]
  distance:    0.0588091
  band:
  - # 1
    frequency:    3.0807438869
  - # 2
    frequency:   14.5504229291
  - # 3
    frequency:   20.2461167861
  - # 4
    frequency:   23.0775062611
  - # 5
    frequency:   49.6545969480
  - # 6
    frequency:   53.7593013792

- q-position: [    0.2800000,    0.1400000,    0.0000000 ]
  distance:    0.0602435
  band:
  - # 1
    frequency:    3.2820434026
  - # 2
    frequency:   14.9071546626
  - # 3
    frequency:   20.9041256384
  - # 4
    frequency:   23.0050898070
  - # 5
    frequency:   49.3501681217
  - # 6
    frequency:   53.4141639865

- q-position: [    0.2866667,    0.1433333,    0.0000000 ]
  distance:    0.0616779
  band:
  - # 1
    frequency:    3.4850953733
  - # 2
    frequency:   15.2704524284
  - # 3
    frequency:   21.5759063142
  - # 4
    frequency:   22.9299349842
  - # 5
    frequency:   49.0206938205
  - # 6
    frequency:   53.0200529683

- q-position: [    0.2933333,    0.1466667,    0.0000000 ]
  distance:    0.0631122
  band:
  - # 1
    frequency:    3.6899051752
  - # 2
    frequency:   15.6375144596
  - # 3
    frequency:   22.2549523097
  - # 4
    frequency:   22.8519796059
  - # 5
    frequency:   48.6764388726
  - # 6
    frequency:   52.5841670794

- q-position: [    0.3000000,    0.1500000,    0.0000000 ]
  distance:    0.0645466
  band:
  - # 1
    frequency:    3.8964510100
  - # 2
    frequency:   16.0049054600
  - # 3
    frequency:   22.7711613975
  - # 4
    frequency:   22.9342829302
  - # 5
    frequency:   48.3280029695
  - # 6
    frequency:   52.1139088918

- q-position: [    0.3066667,    0.1533333,    0.0000000 ]
  distance:    0.0659810
  band:
  - # 1
    frequency:    4.1046895223
  - # 2
    frequency:   16.3686910244
  - # 3
    frequency:   22.6874183092
  - # 4
    frequency:   23.6066907211
  - # 5
    frequency:   47.9861131154
  - # 6
    frequency:   51.6168389350

- q-position: [    0.3133333,    0.1566667,    0.0000000 ]
  distance:    0.0674153
  band:
  - # 1
    frequency:    4.3145599994
  - # 2
    frequency:   16.7246011386
  - # 3
    frequency:   22.6006888702
  - # 4
    frequency:   24.2650324949
  - # 5
    frequency:   47.6613267796
  - # 6
    frequency:   51.1006240071

- q-position: [    0.3200000,    0.1600000,    0.0000000 ]
  distance:    0.0688497
  band:
  - # 1
    frequency:    4.5259875729
  - # 2
    frequency:   17.0682286234
  - # 3
    frequency:   22.5109125863
  - # 4
    frequency:   24.9025617017
  - # 5
    frequency:   47.3636334294
  - # 6
    frequency:   50.5729816636

- q-position: [    0.3266667,    0.1633333,    0.0000000 ]
  distance:    0.0702841
  band:
  - # 1
    frequency:    4.7388857021
  - # 2
    frequency:   17.3952676459
  - # 3
    frequency:   22.4180303794
  - # 4
    frequency:   25.5132882417
  - # 5
    frequency:   47.1019529101
  - # 6
    frequency:   50.0416261583

- q-position: [    0.3333333,    0.1666667,    0.0000000 ]
  distance:    0.0717185
  band:
  - # 1
    frequency:    4.9531581340
  - # 2
    frequency:   17.7017934499
  - # 3
    frequency:   22.3219850686
  - # 4
    frequency:   26.0923345783
  - # 5
    frequency:   46.8835441783
  - # 6
    frequency:   49.5142286848

- q-position: [    0.3400000,    0.1700000,    0.0000000 ]
  distance:    0.0731528
  band:
  - # 1
    frequency:    5.1687004741
  - # 2
    frequency:   17.9845760012
  - # 3
    frequency:   22.2227218920
  - # 4
    frequency:   26.6362383180
  - # 5
    frequency:   46.7133469117
  - # 6
    frequency:   48.9984240863

- q-position: [    0.3466667,    0.1733333,    0.0000000 ]
  distance:    0.0745872
  band:
  - # 1
    frequency:    5.3854014665
  - # 2
    frequency:   18.2414071526
  - # 3
    frequency:   22.1201890664
  - # 4
    frequency:   27.1431398086
  - # 5
    frequency:   46.5932488558
  - # 6
    frequency:   48.5019517219

- q-position: [    0.3533333,    0.1766667,    0.0000000 ]
  distance:    0.0760216
  band:
  - # 1
    frequency:    5.6031440522
  - # 2
    frequency:   18.4714052470
  - # 3
    frequency:   22.0143383840
  - # 4
    frequency:   27.6127992384
  - # 5
    frequency:   46.5210978703
  - # 6
    frequency:   48.0332031596

- q-position: [    0.3600000,    0.1800000,    0.0000000 ]
  distance:    0.0774559
  band:
  - # 1
    frequency:    5.8218062578
  - # 2
    frequency:   18.6752477211
  - # 3
    frequency:   21.9051258411
  - # 4
    frequency:   28.0464173079
  - # 5
    frequency:   46.4885321069
  - # 6
    frequency:   47.6031804326

- q-position: [    0.3666667,    0.1833333,    0.0000000 ]
  distance:    0.0788903
  band:
  - # 1
    frequency:    6.0412619532
  - # 2
    frequency:   18.8552781081
  - # 3
    frequency:   21.7925122975
  - # 4
    frequency:   28.4462813376
  - # 5
    frequency:   46.4733698920
  - # 6
    frequency:   47.2331592665

- q-position: [    0.3733333,    0.1866667,    0.0000000 ]
  distance:    0.0803247
  band:
  - # 1
    frequency:    6.2613815071
  - # 2
    frequency:   19.0154446214
  - # 3
    frequency:   21.6764641612
  - # 4
    frequency:   28.8153064738
  - # 5
    frequency:   46.4143829183
  - # 6
    frequency:   46.9802142923

- q-position: [    0.3800000,    0.1900000,    0.0000000 ]
  distance:    0.0817590
  band:
  - # 1
    frequency:    6.4820323625
  - # 2
    frequency:   19.1610538975
  - # 3
    frequency:   21.5569540940
  - # 4
    frequency:   29.1565674531
  - # 5
    frequency:   46.2368478775
  - # 6
    frequency:   46.9121434829

- q-position: [    0.3866667,    0.1933333,    0.0000000 ]
  distance:    0.0831934
  band:
  - # 1
    frequency:    6.7030795487
  - # 2
    frequency:   19.2983589677
  - # 3
    frequency:   21.4339617337
  - # 4
    frequency:   29.4729084666
  - # 5
    frequency:   45.9993531754
  - # 6
    frequency:   46.9612242357

- q-position: [    0.3933333,    0.1966667,    0.0000000 ]
  distance:    0.0846278
  band:
  - # 1
    frequency:    6.9243861443
  - # 2
    frequency:   19.4340337407
  - # 3
    frequency:   21.3074744276
  - # 4
    frequency:   29.7666831977
  - # 5
    frequency:   45.7708757332
  - # 6
    frequency:   47.0477012834

- q-position: [    0.4000000,    0.2000000,    0.0000000 ]
  distance:    0.0860621
  band:
  - # 1
    frequency:    7.1458136999
  - # 2
    frequency:   19.5746065425
  - # 3
    frequency:   21.1774879708
  - # 4
    frequency:   30.0396328458
  - # 5
    frequency:   45.5730809807
  - # 6
    frequency:   47.1379949523

- q-position: [    0.4066667,    0.2033333,    0.0000000 ]
  distance:    0.0874965
  band:
  - # 1
    frequency:    7.3672226290
  - # 2
    frequency:   19.7259277004
  - # 3
    frequency:   21.0440073440
  - # 4
    frequency:   30.2928754124
  - # 5
    frequency:   45.4112657437
  - # 6
    frequency:   47.2141836913

- q-position: [    0.4133333,    0.2066667,    0.0000000 ]
  distance:    0.0889309
  band:
  - # 1
    frequency:    7.5884725745
  - # 2
    frequency:   19.8927328978
  - # 3
    frequency:   20.9070474448
  - # 4
    frequency:   30.5269634981
  - # 5
    frequency:   45.2851909835
  - # 6
    frequency:   47.2635133983

- q-position: [    0.4200000,    0.2100000,    0.0000000 ]
  distance:    0.0903652
  band:
  - # 1
    frequency:    7.8094227539
  - # 2
    frequency:   20.0783415341
  - # 3
    frequency:   20.7666338049
  - # 4
    frequency:   30.7419684796
  - # 5
    frequency:   45.1917624350
  - # 6
    frequency:   47.2759899678

- q-position: [    0.4266667,    0.2133333,    0.0000000 ]
  distance:    0.0917996
  band:
  - # 1
    frequency:    8.0299322881
  - # 2
    frequency:   20.2845047227
  - # 3
    frequency:   20.6228032879
  - # 4
    frequency:   30.9375587074
  - # 5
    frequency:   45.1256189247
  - # 6
    frequency:   47.2440150266

- q-position: [    0.4333333,    0.2166667,    0.0000000 ]
  distance:    0.0932340
  band:
  - # 1
    frequency:    8.2498605166
  - # 2
    frequency:   20.4756047602
  - # 3
    frequency:   20.5113961401
  - # 4
    frequency:   31.1130506674
  - # 5
    frequency:   45.0788527378
  - # 6
    frequency:   47.1628597974

- q-position: [    0.4400000,    0.2200000,    0.0000000 ]
  distance:    0.0946684
  band:
  - # 1
    frequency:    8.4690673014
  - # 2
    frequency:   20.3250997274
  - # 3
    frequency:   20.7577235036
  - # 4
    frequency:   31.2674199454
  - # 5
    frequency:   45.0398747154
  - # 6
    frequency:   47.0319816603

- q-position: [    0.4466667,    0.2233333,    0.0000000 ]
  distance:    0.0961027
  band:
  - # 1
    frequency:    8.6874133207
  - # 2
    frequency:   20.1713629309
  - # 3
    frequency:   21.0209297208
  - # 4
    frequency:   31.3992613431
  - # 5
    frequency:   44.9909299831
  - # 6
    frequency:   46.8576941207

- q-position: [    0.4533333,    0.2266667,    0.0000000 ]
  distance:    0.0975371
  band:
  - # 1
    frequency:    8.9047603539
  - # 2
    frequency:   20.0144828962
  - # 3
    frequency:   21.2974499615
  - # 4
    frequency:   31.5066844112
  - # 5
    frequency:   44.9038643720
  - # 6
    frequency:   46.6576093601

- q-position: [    0.4600000,    0.2300000,    0.0000000 ]
  distance:    0.0989715
  band:
  - # 1
    frequency:    9.1209715590
  - # 2
    frequency:   19.8545624266
  - # 3
    frequency:   21.5829923845
  - # 4
    frequency:   31.5871222469
  - # 5
    frequency:   44.7369689452
  - # 6
    frequency:   46.4640524180

- q-position: [    0.4666667,    0.2333333,    0.0000000 ]
  distance:    0.1004058
  band:
  - # 1
    frequency:    9.3359117421
  - # 2
    frequency:   19.6917190351
  - # 3
    frequency:   21.8728137589
  - # 4
    frequency:   31.6370173702
  - # 5
    frequency:   44.4445633745
  - # 6
    frequency:   46.3148260404

- q-position: [    0.4733333,    0.2366667,    0.0000000 ]
  distance:    0.1018402
  band:
  - # 1
    frequency:    9.5494476197
  - # 2
    frequency:   19.5260853072
  - # 3
    frequency:   22.1619642092
  - # 4
    frequency:   31.6513277412
  - # 5
    frequency:   44.0032060972
  - # 6
    frequency:   46.2274996596

- q-position: [    0.4800000,    0.2400000,    0.0000000 ]
  distance:    0.1032746
  band:
  - # 1
    frequency:    9.7614480733
  - # 2
    frequency:   19.3578091888
  - # 3
    frequency:   22.4454747503
  - # 4
    frequency:   31.6227677884
  - # 5
    frequency:   43.4211165738
  - # 6
    frequency:   46.1907306082

- q-position: [    0.4866667,    0.2433333,    0.0000000 ]
  distance:    0.1047089
  band:
  - # 1
    frequency:    9.9717843968
  - # 2
    frequency:   19.1870541909
  - # 3
    frequency:   22.7184526977
  - # 4
    frequency:   31.5406691570
  - # 5
    frequency:   42.7208926434
  - # 6
    frequency:   46.1826679436

- q-position: [    0.4933333,    0.2466667,    0.0000000 ]
  distance:    0.1061433
  band:
  - # 1
    frequency:   10.1803305350
  - # 2
    frequency:   19.0139995056
  - # 3
    frequency:   22.9760244059
  - # 4
    frequency:   31.3893448678
  - # 5
    frequency:   41.9273885207
  - # 6
    frequency:   46.1847309977

- q-position: [    0.5000000,    0.2500000,    0.0000000 ]
  distance:    0.1075777
  band:
  - # 1
    frequency:   10.3869633141
  - # 2
    frequency:   18.8388400260
  - # 3
    frequency:   23.2129992330
  - # 4
    frequency:   31.1459803449
  - # 5
    frequency:   41.0678933033
  - # 6
    frequency:   46.1836983651

- q-position: [    0.5066667,    0.2533333,    0.0000000 ]
  distance:    0.1090120
  band:
  - # 1
    frequency:   10.5915626631
  - # 2
    frequency:   18.6617862642
  - # 3
    frequency:   23.4229569688
  - # 4
    frequency:   30.7786656488
  - # 5
    frequency:   40.1761354287
  - # 6
    frequency:   46.1702216206

- q-position: [    0.5133333,    0.2566667,    0.0000000 ]
  distance:    0.1104464
  band:
  - # 1
    frequency:   10.7940118240
  - # 2
    frequency:   18.4830641608
  - # 3
    frequency:   23.5959707981
  - # 4
    frequency:   30.2468428624
  - # 5
    frequency:   39.2948968789
  - # 6
    frequency:   46.1374182626

- q-position: [    0.5200000,    0.2600000,    0.0000000 ]
  distance:    0.1118808
  band:
  - # 1
    frequency:   10.9941975524
  - # 2
    frequency:   18.3029147804
  - # 3
    frequency:   23.7126146035
  - # 4
    frequency:   29.5097575094
  - # 5
    frequency:   38.4733875017
  - # 6
    frequency:   46.0800185746

- q-position: [    0.5266667,    0.2633333,    0.0000000 ]
  distance:    0.1133152
  band:
  - # 1
    frequency:   11.1920103064
  - # 2
    frequency:   18.1215938864
  - # 3
    frequency:   23.7264203238
  - # 4
    frequency:   28.5534594888
  - # 5
    frequency:   37.7565782845
  - # 6
    frequency:   45.9938951018

- q-position: [    0.5333333,    0.2666667,    0.0000000 ]
  distance:    0.1147495
  band:
  - # 1
    frequency:   11.3873444211
  - # 2
    frequency:   17.9393713920
  - # 3
    frequency:   23.5094742913
  - # 4
    frequency:   27.4571001190
  - # 5
    frequency:   37.1706970202
  - # 6
    frequency:   45.8758063287

- q-position: [    0.5400000,    0.2700000,    0.0000000 ]
  distance:    0.1161839
  band:
  - # 1
    frequency:   11.5800982711
  - # 2
    frequency:   17.7565306811
  - # 3
    frequency:   22.7435080277
  - # 4
    frequency:   26.5032302673
  - # 5
    frequency:   36.7167579605
  - # 6
    frequency:   45.7232553252

- q-position: [    0.5466667,    0.2733333,    0.0000000 ]
  distance:    0.1176183
  band:
  - # 1
    frequency:   11.7701744159
  - # 2
    frequency:   17.5733677962
  - # 3
    frequency:   21.0776794852
  - # 4
    frequency:   26.0027685131
  - # 5
    frequency:   36.3774283129
  - # 6
    frequency:   45.5344105156

- q-position: [    0.5533333,    0.2766667,    0.0000000 ]
  distance:    0.1190526
  band:
  - # 1
    frequency:   11.9574797278
  - # 2
    frequency:   17.3901904917
  - # 3
    frequency:   18.5258485820
  - # 4
    frequency:   25.8616810022
  - # 5
    frequency:   36.1290289863
  - # 6
    frequency:   45.3080609584

- q-position: [    0.5600000,    0.2800000,    0.0000000 ]
  distance:    0.1204870
  band:
  - # 1
    frequency:   12.1419254995
  - # 2
    frequency:   15.0831304604
  - # 3
    frequency:   17.2073171497
  - # 4
    frequency:   25.8872467116
  - # 5
    frequency:   35.9497658322
  - # 6
    frequency:   45.0435917451

- q-position: [    0.5666667,    0.2833333,    0.0000000 ]
  distance:    0.1219214
  band:
  - # 1
    frequency:   10.2209859634
  - # 2
    frequency:   12.3234275267
  - # 3
    frequency:   17.0250755632
  - # 4
    frequency:   25.9908601644
  - # 5
    frequency:   35.8227521336
  - # 6
    frequency:   44.7409721392

- q-position: [    0.5733333,    0.2866667,    0.0000000 ]
  distance:    0.1233557
  band:
  - # 1
    frequency:   -4.6684063765
  - # 2
    frequency:   12.5019061593
  - # 3
    frequency:   16.8438015886
  - # 4
    frequency:   26.1385416540
  - # 5
    frequency:   35.7360986571
  - # 6
    frequency:   44.4007529596

- q-position: [    0.5800000,    0.2900000,    0.0000000 ]
  distance:    0.1247901
  band:
  - # 1
    frequency:  -12.1868687405
  - # 2
    frequency:   12.6772863114
  - # 3
    frequency:   16.6638376801
  - # 4
    frequency:   26.3161761847
  - # 5
    frequency:   35.6820286979
  - # 6
    frequency:   44.0240720171

- q-position: [    0.5866667,    0.2933333,    0.0000000 ]
  distance:    0.1262245
  band:
  - # 1
    frequency:  -16.5397344072
  - # 2
    frequency:   12.8494974137
  - # 3
    frequency:   16.4855313244
  - # 4
    frequency:   26.5169409353
  - # 5
    frequency:   35.6559068271
  - # 6
    frequency:   43.6126679409

- q-position: [    0.5933333,    0.2966667,    0.0000000 ]