72   
2    

1    
  0.0102836436877519  -0.0059372644350846   0.0160933391044631
  -0.3431071906    0.2032658578   -0.1050491779
   0.0421351932   -0.0289735931   -0.0036006819
   0.0294009688    0.0057513201   -0.0001829901
   0.0416361020   -0.0138152897    0.0000690618
   0.0184981985   -0.0132763747   -0.0001893532
   0.0545648167   -0.0066026949   -0.0033483893
   0.0355878506    0.0267844078   -0.0034821182
   0.0451864077   -0.0141492650    0.0006163893
   0.0187053197   -0.0136615585   -0.0000626642
   0.0296392860    0.0058371851   -0.0000708057
   0.0431861444   -0.0162482163    0.0006526629
   0.0031113119   -0.0280938390   -0.0035231562
   0.0176541284   -0.0116274185   -0.0001879907
   0.0298661051    0.0065560371   -0.0000625116
   0.0428081925   -0.0143481343    0.0000483569
   0.0182112320   -0.0136461423   -0.0000670688
   0.0281090642    0.0062004390   -0.0001656855
   0.0420873976   -0.0144571947    0.0006466612
   0.0416238527   -0.0137619520    0.0000683022
   0.0181430522   -0.0131909743   -0.0000697462
   0.0294641193    0.0064365961   -0.0000661532
   0.0420605661   -0.0137446595    0.0000656676
   0.0180777240   -0.0134690974   -0.0000653911
   0.0293530479    0.0064075292   -0.0000704857
   0.0284869099    0.0073307530   -0.0001912540
   0.0423541965   -0.0139938005    0.0006470348
   0.0169631955   -0.0133016389   -0.0001633294
   0.0295779688    0.0062233800   -0.0000665118
   0.0428071371   -0.0143496433    0.0000483623
   0.0185443135   -0.0132357067   -0.0000629855
   0.0228356736    0.0044288500   -0.0033545422
   0.0155357652   -0.0063115035   -0.0036471765
   0.0433998994   -0.0158393042    0.0006554895
   0.0184176865   -0.0137747676   -0.0000711153
   0.0300534078    0.0061711414   -0.0000623280
   0.0452440682   -0.0140857670    0.0006134127
   0.1345592094   -0.0305882195    0.0450376709
  -0.0219119055   -0.0034438080   -0.0041503375
  -0.0292954667    0.0200321343    0.0002944428
  -0.0408654091    0.0003588222    0.0002325222
  -0.0168222275    0.0053034503   -0.0043329891
   0.0818780239   -0.1108620752    0.0464745231
  -0.0354962481    0.0199667985   -0.0041447208
  -0.0436580826    0.0004272052    0.0005068734
  -0.0186028189    0.0004301010   -0.0001341395
  -0.0305636012    0.0216822733    0.0005649839
  -0.0434953564    0.0046110357   -0.0041409844
  -0.0078819444   -0.0053145593    0.0030799584
  -0.0179594548    0.0001545211    0.0002884485
  -0.0302939583    0.0207387444   -0.0001322399
  -0.0421492038    0.0002963794   -0.0001280374
  -0.0180852613   -0.0000248805    0.0002153534
  -0.0291619954    0.0208047376   -0.0000535026
  -0.0411150164   -0.0005966154   -0.0001056546
  -0.0408226355    0.0002861625    0.0002379966
  -0.0182386162    0.0001094983    0.0005551815
  -0.0295773565    0.0200353490    0.0002270116
  -0.0416211815    0.0002740982   -0.0000049118
  -0.0181581594    0.0001652892    0.0000071473
  -0.0296492900    0.0201018195   -0.0000053343
  -0.0252013535    0.0199705121   -0.0043088732
  -0.0389630187   -0.0032823522   -0.0041232166
  -0.0176786638    0.0007137067   -0.0000587781
  -0.0300855108    0.0209763378    0.0000084031
  -0.0421754982    0.0002745190    0.0000085192
  -0.0185879476   -0.0008508044   -0.0000869942
   0.0359809217   -0.0305265908    0.0456607500
  -0.0265224777    0.0272069481    0.0030509065
  -0.0421177853    0.0011542819   -0.0001048854
  -0.0183082602    0.0003993211   -0.0000064726
  -0.0309327206    0.0208143143   -0.0000809968
  -0.0466428442   -0.0052334156    0.0034045873

1    
 -0.0102836436877519   0.0059372644350846  -0.0160933391044631
   0.3745568764   -0.2100347433    0.1050683062
  -0.0062574093    0.0288588209    0.0033465076
   0.0059471457   -0.0058039880    0.0001890839
  -0.0062196839    0.0140145096   -0.0000686546
   0.0170510842    0.0132855686    0.0001827098
  -0.0194967663    0.0067695359    0.0035988744
   0.0001285408   -0.0267006005    0.0034638898
  -0.0095602746    0.0142958219   -0.0006283036
   0.0169073936    0.0136288098    0.0000644010
   0.0056414211   -0.0058550065    0.0000688677
  -0.0079193732    0.0166049527   -0.0006405945
   0.0323743264    0.0284880015    0.0035383888
   0.0179831318    0.0118598567    0.0001838689
   0.0055695635   -0.0064797689    0.0000645384
  -0.0073506991    0.0146183638   -0.0000483614
   0.0174060897    0.0137919783    0.0000648780
   0.0073883123   -0.0060698057    0.0001703170
  -0.0067658245    0.0144939696   -0.0006465929
  -0.0062518161    0.0141023409   -0.0000693050
   0.0174883377    0.0133482307    0.0000699385
   0.0059705105   -0.0063464923    0.0000658199
  -0.0064987091    0.0139744020   -0.0000645574
   0.0175388682    0.0135076155    0.0000665676
   0.0059904325   -0.0063844759    0.0000691755
   0.0068083821   -0.0073001715    0.0001809208
  -0.0068761514    0.0143033259   -0.0006465988
   0.0186871868    0.0133040416    0.0001729767
   0.0058178089   -0.0060982442    0.0000653990
  -0.0073516175    0.0146169826   -0.0000483510
   0.0171384355    0.0133770515    0.0000640177
   0.0130392809   -0.0046011798    0.0035896850
   0.0194917846    0.0064416182    0.0034125066
  -0.0080834587    0.0163594252   -0.0006376078
   0.0171276837    0.0138641101    0.0000685456
   0.0053653234   -0.0061863681    0.0000647270
  -0.0095022519    0.0143602907   -0.0006311286
  -0.1647838956    0.0310361291   -0.0467219158
  -0.0136668300    0.0033098086    0.0041891678
  -0.0060139184   -0.0201951298   -0.0002713510
   0.0054255672   -0.0002547240   -0.0002563595
  -0.0187629404   -0.0054368071    0.0042964691
  -0.1195351366    0.1154288577   -0.0448029012
  -0.0001757286   -0.0201792382    0.0041950971
   0.0079908662   -0.0003762573   -0.0005271550
  -0.0169832757   -0.0005703570    0.0001342045
  -0.0046786752   -0.0220679905   -0.0005448613
   0.0081926948   -0.0048420202    0.0040904334
  -0.0276218989    0.0053255658   -0.0030797776
  -0.0176329263   -0.0003149257   -0.0002775078
  -0.0051380530   -0.0210279115    0.0001362079
   0.0066593219   -0.0003576487    0.0001239190
  -0.0175184263   -0.0001289326   -0.0002264148
  -0.0063222735   -0.0209381609    0.0000658836
   0.0057850938    0.0005630975    0.0000932349
   0.0054390281   -0.0002759632   -0.0002508158
  -0.0173780600   -0.0002983173   -0.0005550352
  -0.0058435340   -0.0201945823   -0.0002145192
   0.0060245817   -0.0002695402    0.0000024384
  -0.0174357317   -0.0003165211   -0.0000071707
  -0.0056728200   -0.0204507249    0.0000076033
  -0.0101320805   -0.0202301376    0.0043218393
   0.0034529188    0.0033248398    0.0041091351
  -0.0179692328   -0.0009665472    0.0000604578
  -0.0052873377   -0.0212053926   -0.0000058898
   0.0067088235   -0.0002570145   -0.0000110875
  -0.0170687842    0.0006044036    0.0000854140
  -0.0707735646    0.0317741729   -0.0456593698
  -0.0084760140   -0.0275986633   -0.0031092663
   0.0067573434   -0.0011081362    0.0000940884
  -0.0172404053   -0.0004748980    0.0000064080
  -0.0044662818   -0.0209385634    0.0000916475
   0.0108577012    0.0054994491   -0.0033471065
