phonopy:
  version: "2.40.0"
  calculator: siesta
  frequency_unit_conversion_factor: 15.633302
  symmetry_tolerance: 1.00000e-05
  configuration:
    cell_filename: "relaxed_graphene.fdf"
    create_displacements: ".true."
    dim: "6 6 1"
    calculator: "siesta"

physical_unit:
  atomic_mass: "AMU"
  length: "au"

space_group:
  type: "Cmmm"
  number: 65
  Hall_symbol: "-C 2 2"

supercell_matrix:
- [   6,   0,   0 ]
- [   0,   6,   0 ]
- [   0,   0,   1 ]

primitive_cell:
  lattice:
  - [     4.025116671915840,    -2.323902187674508,     0.000000000000000 ] # a
  - [     4.025116671915840,     2.323902187674508,     0.000000000000000 ] # b
  - [     0.000000000000000,     0.000000000000000,    37.794522740993806 ] # c
  points:
  - symbol: C # 1
    coordinates: [  0.000000000000000,  0.000000000000000,  0.000000000000000 ]
    mass: 12.010700
  - symbol: C # 2
    coordinates: [  0.333098591549296,  0.333098591549296,  0.000000000000000 ]
    mass: 12.010700
  reciprocal_lattice: # without 2pi
  - [     0.124220001742711,    -0.215155354924960,     0.000000000000000 ] # a*
  - [     0.124220001742711,     0.215155354924960,     0.000000000000000 ] # b*
  - [     0.000000000000000,     0.000000000000000,     0.026458860371197 ] # c*

unit_cell:
  lattice:
  - [     4.025116671915840,    -2.323902187674509,     0.000000000000000 ] # a
  - [     4.025116671915840,     2.323902187674509,     0.000000000000000 ] # b
  - [     0.000000000000000,     0.000000000000000,    37.794522740993806 ] # c
  points:
  - symbol: C # 1
    coordinates: [  0.000000000000000,  0.000000000000000,  0.000000000000000 ]
    mass: 12.010700
    reduced_to: 1
  - symbol: C # 2
    coordinates: [  0.333098591549296,  0.333098591549296,  0.000000000000000 ]
    mass: 12.010700
    reduced_to: 2

supercell:
  lattice:
  - [    24.150700031495042,   -13.943413126047052,     0.000000000000000 ] # a
  - [    24.150700031495042,    13.943413126047052,     0.000000000000000 ] # b
  - [     0.000000000000000,     0.000000000000000,    37.794522740993806 ] # c
  points:
  - symbol: C # 1
    coordinates: [  0.000000000000000,  0.000000000000000,  0.000000000000000 ]
    mass: 12.010700
    reduced_to: 1
  - symbol: C # 2
    coordinates: [  0.166666666666667,  0.000000000000000,  0.000000000000000 ]
    mass: 12.010700
    reduced_to: 1
  - symbol: C # 3
    coordinates: [  0.333333333333333,  0.000000000000000,  0.000000000000000 ]
    mass: 12.010700
    reduced_to: 1
  - symbol: C # 4
    coordinates: [  0.500000000000000,  0.000000000000000,  0.000000000000000 ]
    mass: 12.010700
    reduced_to: 1
  - symbol: C # 5
    coordinates: [  0.666666666666667,  0.000000000000000,  0.000000000000000 ]
    mass: 12.010700
    reduced_to: 1
  - symbol: C # 6
    coordinates: [  0.833333333333333,  0.000000000000000,  0.000000000000000 ]
    mass: 12.010700
    reduced_to: 1
  - symbol: C # 7
    coordinates: [  0.000000000000000,  0.166666666666667,  0.000000000000000 ]
    mass: 12.010700
    reduced_to: 1
  - symbol: C # 8
    coordinates: [  0.166666666666667,  0.166666666666667,  0.000000000000000 ]
    mass: 12.010700
    reduced_to: 1
  - symbol: C # 9
    coordinates: [  0.333333333333333,  0.166666666666667,  0.000000000000000 ]
    mass: 12.010700
    reduced_to: 1
  - symbol: C # 10
    coordinates: [  0.500000000000000,  0.166666666666667,  0.000000000000000 ]
    mass: 12.010700
    reduced_to: 1
  - symbol: C # 11
    coordinates: [  0.666666666666667,  0.166666666666667,  0.000000000000000 ]
    mass: 12.010700
    reduced_to: 1
  - symbol: C # 12
    coordinates: [  0.833333333333333,  0.166666666666667,  0.000000000000000 ]
    mass: 12.010700
    reduced_to: 1
  - symbol: C # 13
    coordinates: [  0.000000000000000,  0.333333333333333,  0.000000000000000 ]
    mass: 12.010700
    reduced_to: 1
  - symbol: C # 14
    coordinates: [  0.166666666666667,  0.333333333333333,  0.000000000000000 ]
    mass: 12.010700
    reduced_to: 1
  - symbol: C # 15
    coordinates: [  0.333333333333333,  0.333333333333333,  0.000000000000000 ]
    mass: 12.010700
    reduced_to: 1
  - symbol: C # 16
    coordinates: [  0.500000000000000,  0.333333333333333,  0.000000000000000 ]
    mass: 12.010700
    reduced_to: 1
  - symbol: C # 17
    coordinates: [  0.666666666666667,  0.333333333333333,  0.000000000000000 ]
    mass: 12.010700
    reduced_to: 1
  - symbol: C # 18
    coordinates: [  0.833333333333333,  0.333333333333333,  0.000000000000000 ]
    mass: 12.010700
    reduced_to: 1
  - symbol: C # 19
    coordinates: [  0.000000000000000,  0.500000000000000,  0.000000000000000 ]
    mass: 12.010700
    reduced_to: 1
  - symbol: C # 20
    coordinates: [  0.166666666666667,  0.500000000000000,  0.000000000000000 ]
    mass: 12.010700
    reduced_to: 1
  - symbol: C # 21
    coordinates: [  0.333333333333333,  0.500000000000000,  0.000000000000000 ]
    mass: 12.010700
    reduced_to: 1
  - symbol: C # 22
    coordinates: [  0.500000000000000,  0.500000000000000,  0.000000000000000 ]
    mass: 12.010700
    reduced_to: 1
  - symbol: C # 23
    coordinates: [  0.666666666666667,  0.500000000000000,  0.000000000000000 ]
    mass: 12.010700
    reduced_to: 1
  - symbol: C # 24
    coordinates: [  0.833333333333333,  0.500000000000000,  0.000000000000000 ]
    mass: 12.010700
    reduced_to: 1
  - symbol: C # 25
    coordinates: [  0.000000000000000,  0.666666666666667,  0.000000000000000 ]
    mass: 12.010700
    reduced_to: 1
  - symbol: C # 26
    coordinates: [  0.166666666666667,  0.666666666666667,  0.000000000000000 ]
    mass: 12.010700
    reduced_to: 1
  - symbol: C # 27
    coordinates: [  0.333333333333333,  0.666666666666667,  0.000000000000000 ]
    mass: 12.010700
    reduced_to: 1
  - symbol: C # 28
    coordinates: [  0.500000000000000,  0.666666666666667,  0.000000000000000 ]
    mass: 12.010700
    reduced_to: 1
  - symbol: C # 29
    coordinates: [  0.666666666666667,  0.666666666666667,  0.000000000000000 ]
    mass: 12.010700
    reduced_to: 1
  - symbol: C # 30
    coordinates: [  0.833333333333333,  0.666666666666667,  0.000000000000000 ]
    mass: 12.010700
    reduced_to: 1
  - symbol: C # 31
    coordinates: [  0.000000000000000,  0.833333333333333,  0.000000000000000 ]
    mass: 12.010700
    reduced_to: 1
  - symbol: C # 32
    coordinates: [  0.166666666666667,  0.833333333333333,  0.000000000000000 ]
    mass: 12.010700
    reduced_to: 1
  - symbol: C # 33
    coordinates: [  0.333333333333333,  0.833333333333333,  0.000000000000000 ]
    mass: 12.010700
    reduced_to: 1
  - symbol: C # 34
    coordinates: [  0.500000000000000,  0.833333333333333,  0.000000000000000 ]
    mass: 12.010700
    reduced_to: 1
  - symbol: C # 35
    coordinates: [  0.666666666666667,  0.833333333333333,  0.000000000000000 ]
    mass: 12.010700
    reduced_to: 1
  - symbol: C # 36
    coordinates: [  0.833333333333333,  0.833333333333333,  0.000000000000000 ]
    mass: 12.010700
    reduced_to: 1
  - symbol: C # 37
    coordinates: [  0.055516431924883,  0.055516431924883,  0.000000000000000 ]
    mass: 12.010700
    reduced_to: 37
  - symbol: C # 38
    coordinates: [  0.222183098591549,  0.055516431924883,  0.000000000000000 ]
    mass: 12.010700
    reduced_to: 37
  - symbol: C # 39
    coordinates: [  0.388849765258216,  0.055516431924883,  0.000000000000000 ]
    mass: 12.010700
    reduced_to: 37
  - symbol: C # 40
    coordinates: [  0.555516431924883,  0.055516431924883,  0.000000000000000 ]
    mass: 12.010700
    reduced_to: 37
  - symbol: C # 41
    coordinates: [  0.722183098591549,  0.055516431924883,  0.000000000000000 ]
    mass: 12.010700
    reduced_to: 37
  - symbol: C # 42
    coordinates: [  0.888849765258216,  0.055516431924883,  0.000000000000000 ]
    mass: 12.010700
    reduced_to: 37
  - symbol: C # 43
    coordinates: [  0.055516431924883,  0.222183098591549,  0.000000000000000 ]
    mass: 12.010700
    reduced_to: 37
  - symbol: C # 44
    coordinates: [  0.222183098591549,  0.222183098591549,  0.000000000000000 ]
    mass: 12.010700
    reduced_to: 37
  - symbol: C # 45
    coordinates: [  0.388849765258216,  0.222183098591549,  0.000000000000000 ]
    mass: 12.010700
    reduced_to: 37
  - symbol: C # 46
    coordinates: [  0.555516431924883,  0.222183098591549,  0.000000000000000 ]
    mass: 12.010700
    reduced_to: 37
  - symbol: C # 47
    coordinates: [  0.722183098591549,  0.222183098591549,  0.000000000000000 ]
    mass: 12.010700
    reduced_to: 37
  - symbol: C # 48
    coordinates: [  0.888849765258216,  0.222183098591549,  0.000000000000000 ]
    mass: 12.010700
    reduced_to: 37
  - symbol: C # 49
    coordinates: [  0.055516431924883,  0.388849765258216,  0.000000000000000 ]
    mass: 12.010700
    reduced_to: 37
  - symbol: C # 50
    coordinates: [  0.222183098591549,  0.388849765258216,  0.000000000000000 ]
    mass: 12.010700
    reduced_to: 37
  - symbol: C # 51
    coordinates: [  0.388849765258216,  0.388849765258216,  0.000000000000000 ]
    mass: 12.010700
    reduced_to: 37
  - symbol: C # 52
    coordinates: [  0.555516431924883,  0.388849765258216,  0.000000000000000 ]
    mass: 12.010700
    reduced_to: 37
  - symbol: C # 53
    coordinates: [  0.722183098591549,  0.388849765258216,  0.000000000000000 ]
    mass: 12.010700
    reduced_to: 37
  - symbol: C # 54
    coordinates: [  0.888849765258216,  0.388849765258216,  0.000000000000000 ]
    mass: 12.010700
    reduced_to: 37
  - symbol: C # 55
    coordinates: [  0.055516431924883,  0.555516431924883,  0.000000000000000 ]
    mass: 12.010700
    reduced_to: 37
  - symbol: C # 56
    coordinates: [  0.222183098591549,  0.555516431924883,  0.000000000000000 ]
    mass: 12.010700
    reduced_to: 37
  - symbol: C # 57
    coordinates: [  0.388849765258216,  0.555516431924883,  0.000000000000000 ]
    mass: 12.010700
    reduced_to: 37
  - symbol: C # 58
    coordinates: [  0.555516431924883,  0.555516431924883,  0.000000000000000 ]
    mass: 12.010700
    reduced_to: 37
  - symbol: C # 59
    coordinates: [  0.722183098591549,  0.555516431924883,  0.000000000000000 ]
    mass: 12.010700
    reduced_to: 37
  - symbol: C # 60
    coordinates: [  0.888849765258216,  0.555516431924883,  0.000000000000000 ]
    mass: 12.010700
    reduced_to: 37
  - symbol: C # 61
    coordinates: [  0.055516431924883,  0.722183098591549,  0.000000000000000 ]
    mass: 12.010700
    reduced_to: 37
  - symbol: C # 62
    coordinates: [  0.222183098591549,  0.722183098591549,  0.000000000000000 ]
    mass: 12.010700
    reduced_to: 37
  - symbol: C # 63
    coordinates: [  0.388849765258216,  0.722183098591549,  0.000000000000000 ]
    mass: 12.010700
    reduced_to: 37
  - symbol: C # 64
    coordinates: [  0.555516431924883,  0.722183098591549,  0.000000000000000 ]
    mass: 12.010700
    reduced_to: 37
  - symbol: C # 65
    coordinates: [  0.722183098591549,  0.722183098591549,  0.000000000000000 ]
    mass: 12.010700
    reduced_to: 37
  - symbol: C # 66
    coordinates: [  0.888849765258216,  0.722183098591549,  0.000000000000000 ]
    mass: 12.010700
    reduced_to: 37
  - symbol: C # 67
    coordinates: [  0.055516431924883,  0.888849765258216,  0.000000000000000 ]
    mass: 12.010700
    reduced_to: 37
  - symbol: C # 68
    coordinates: [  0.222183098591549,  0.888849765258216,  0.000000000000000 ]
    mass: 12.010700
    reduced_to: 37
  - symbol: C # 69
    coordinates: [  0.388849765258216,  0.888849765258216,  0.000000000000000 ]
    mass: 12.010700
    reduced_to: 37
  - symbol: C # 70
    coordinates: [  0.555516431924883,  0.888849765258216,  0.000000000000000 ]
    mass: 12.010700
    reduced_to: 37
  - symbol: C # 71
    coordinates: [  0.722183098591549,  0.888849765258216,  0.000000000000000 ]
    mass: 12.010700
    reduced_to: 37
  - symbol: C # 72
    coordinates: [  0.888849765258216,  0.888849765258216,  0.000000000000000 ]
    mass: 12.010700
    reduced_to: 37

displacements:
- atom:    1
  displacement:
    [   0.0102836436877519, -0.0059372644350846,  0.0160933391044631 ]
- atom:    1
  displacement:
    [  -0.0102836436877519,  0.0059372644350846, -0.0160933391044631 ]
