Executable      : siesta
Version         : 5.2.1
Architecture    : x86_64
Compiler version: GNU-13.3.0
Compiler flags  : -march=nocona -mtune=haswell -ftree-vectorize -fPIC -fstack-protector-strong -fno-plt -O2 -ffunction-sections -pipe -isystem <prefix>/include -I<prefix>/_build_env/include -fdebug-prefix-map=<prefix>/work=/usr/local/src/conda/siesta-5.2.1 -fdebug-prefix-map=<prefix>=/usr/local/src/conda-prefix -I<prefix>/lib -fallow-argument-mismatch -O3
Parallelisations: none
NetCDF support
NetCDF-4 support
Lua support
DFT-D3 support

Runtime information:
* Directory : /home/samba/homes/convidat/Documents/SSN_FP_June16/Graphene3x3/disp-002
* Running in serial mode.
>> Start of run:  17-JUN-2025  16:36:11

                           *********************** 
                           *  WELCOME TO SIESTA  * 
                           *********************** 

 NOTE: Siesta V5 introduces some new defaults for basis-set generation
 NOTE: which might lead to slightly different numerical results.
 NOTE: Please see the manual for full details and compatibility measures.


reinit: Reading from standard input
reinit: Dumping input in INPUT_TMP.87035
************************** Dump of input data file ****************************
NumberOfAtoms 18
%block LatticeVectors
   12.0753500157475209   -6.9717065630235258    0.0000000000000000
   12.0753500157475209    6.9717065630235258    0.0000000000000000
    0.0000000000000000    0.0000000000000000   37.7945227409938056
%endblock LatticeVectors
AtomicCoordinatesFormat  Fractional
NumberOfSpecies 1
%block ChemicalSpeciesLabel
 1 6 C
%endblock ChemicalSpeciesLabel
LatticeConstant 1.0 Bohr
%block AtomicCoordinatesAndAtomicSpecies
  -0.0004964682870935  -0.0000000000000000  -0.0004964682870935 1
   0.3333333333333333   0.0000000000000000   0.0000000000000000 1
   0.6666666666666666   0.0000000000000000   0.0000000000000000 1
   0.0000000000000000   0.3333333333333333   0.0000000000000000 1
   0.3333333333333333   0.3333333333333333   0.0000000000000000 1
   0.6666666666666666   0.3333333333333334   0.0000000000000000 1
   0.0000000000000000   0.6666666666666666   0.0000000000000000 1
   0.3333333333333333   0.6666666666666666   0.0000000000000000 1
   0.6666666666666666   0.6666666666666666   0.0000000000000000 1
   0.1110328638497653   0.1110328638497653   0.0000000000000000 1
   0.4443661971830987   0.1110328638497653   0.0000000000000000 1
   0.7776995305164319   0.1110328638497653   0.0000000000000000 1
   0.1110328638497653   0.4443661971830987   0.0000000000000000 1
   0.4443661971830986   0.4443661971830986   0.0000000000000000 1
   0.7776995305164319   0.4443661971830986   0.0000000000000000 1
   0.1110328638497653   0.7776995305164319   0.0000000000000000 1
   0.4443661971830987   0.7776995305164319   0.0000000000000000 1
   0.7776995305164320   0.7776995305164320   0.0000000000000000 1
%endblock AtomicCoordinatesAndAtomicSpecies
************************** End of input data file *****************************

reinit: -----------------------------------------------------------------------
reinit: System Name: 
reinit: -----------------------------------------------------------------------
reinit: System Label: siesta
reinit: -----------------------------------------------------------------------

initatom: Reading input for the pseudopotentials and atomic orbitals ----------
Species number:   1 Atomic number:    6 Label: C

Ground state valence configuration (from tables):   2s02  2p02  3d00  4f00

---- Processing specs for species: C
Reading pseudopotential information in PSML from:
  C.psml
PSML file version: 1.1
Using libxc ids:  101 130
GGA--PBE XC_GGA_X_PBE--XC_GGA_C_PBE pb
PSML uuid: 297821e0-be41-11e7-6802-e1ff7dfff095

---- Pseudopotential check for C 

Pseudized shells:
2s( 2.00) rc: 1.20
2p( 2.00) rc: 1.26
Valence configuration for ps generation: 2s:2p: Total charge:   4.000000
For C, standard SIESTA heuristics set lmxkb to 3
 (one more than the basis l, including polarization orbitals).
Use PS.lmax or PS.KBprojectors blocks to override.
C pseudopotential only contains V_ls up to l=1 -- lmxkb reset.

<basis_specs>
===============================================================================
C                    Z=   6    Mass=  12.011        Charge= 0.17977+309
Lmxo=2 Lmxkb= 1    BasisType=split      Semic=F
L=0  Nsemic=0  Cnfigmx=2
          i=1  nzeta=2  polorb=0  (2s)
            splnorm:   0.15000    
               vcte:    40.000    
               rinn:  -0.90000    
               qcoe:    0.0000    
               qyuk:    0.0000    
               qwid:   0.10000E-01
                rcs:    0.0000      0.0000    
            lambdas:    1.0000      1.0000    
L=1  Nsemic=0  Cnfigmx=2
          i=1  nzeta=2  polorb=1  (2p)  (to be polarized perturbatively)
            splnorm:   0.15000    
               vcte:    40.000    
               rinn:  -0.90000    
               qcoe:    0.0000    
               qyuk:    0.0000    
               qwid:   0.10000E-01
                rcs:    0.0000      0.0000    
            lambdas:    1.0000      1.0000    
L=2  Nsemic=0  Cnfigmx=3
          i=1  nzeta=0  polorb=0  (3d)  (perturbative polarization orbital) (from 2p)
-------------------------------------------------------------------------------
L=0  Nkbl=1  erefs: 0.17977+309
L=1  Nkbl=1  erefs: 0.17977+309
===============================================================================
</basis_specs>

Using PAO.SplitTailNorm
atom: Called for C                     (Z =   6)
NOTE: C pseudopotential has channels up to l= 1
NOTE: PAOs with higher l will be generated with V_local
Maximum radius (at nrval) set to   50.00000 8518

read_vps: Pseudopotential generation method:
read_vps: ONCVPSP-3.Hamann's oncvpsp                        
Valence charge in pseudo generation:    4.00000

read_vps: Pseudopotential includes a core correction:
read_vps: Pseudo-core for xc-correction

xc_check: Exchange-correlation functional:
xc_check: Ceperley-Alder
xc_check: WARNING: Pseudopotential generated with GGA PBE functional
Got Vlocal (oncv-fit) from psml data
Choosing vlocal chloc cutoff:  4.122282
qtot up to nchloc:    4.00001153
atom: Maximum radius for chlocal:    4.12228
atom: Maximum radius for r*vlocal+2*Zval:    4.12228
Reading KB projs from C psml data
Using scalar-relativistic projectors in PSML file

PSML: Kleinman-Bylander projectors: 
   l= 0   rc=  1.219773   Ekb= 12.963096
   l= 0   rc=  1.219773   Ekb=  0.771007
   l= 1   rc=  1.278952   Ekb= -8.399923
   l= 1   rc=  1.278952   Ekb= -1.755033

PSML: Total number of  Kleinman-Bylander projectors:   8
atom: -------------------------------------------------------------------------

atom: SANKEY-TYPE ORBITALS:
atom: Selected multiple-zeta basis: split     

SPLIT: Orbitals with angular momentum L= 0

SPLIT: Basis orbitals for state 2s

SPLIT: PAO cut-off radius determined from an
SPLIT: energy shift=  0.010000 Ry
Split based on tail norm

   izeta = 1
                 lambda =    1.000000
                     rc =    4.511437
                 energy =   -0.989254
                kinetic =    0.946651
    potential(screened) =   -1.935906
       potential(ionic) =   -5.498495

   izeta = 2
                 rmatch =    3.075858
              splitnorm =    0.150000
                 energy =   -0.701003
                kinetic =    1.771761
    potential(screened) =   -2.472764
       potential(ionic) =   -6.339278

SPLIT: Orbitals with angular momentum L= 1

SPLIT: Basis orbitals for state 2p

SPLIT: PAO cut-off radius determined from an
SPLIT: energy shift=  0.010000 Ry
Split based on tail norm

   izeta = 1
                 lambda =    1.000000
                     rc =    5.490449
                 energy =   -0.369684
                kinetic =    2.448131
    potential(screened) =   -2.817815
       potential(ionic) =   -6.235458

   izeta = 2
                 rmatch =    3.744030
              splitnorm =    0.150000
                 energy =   -0.242059
                kinetic =    3.581876
    potential(screened) =   -3.823934
       potential(ionic) =   -7.591917
*Note: V_local used for l= 2

** Using vlocal for PAOs with L= 2

POLgen: Perturbative polarization orbital with L=  2

POLgen: Polarization orbital for state 2p
*Note: V_local used for lpol= 2

** Using vlocal for PAOs with L= 2
Split based on tail norm

   izeta = 1
                     rc =    5.490449
                 energy =    1.132297
                kinetic =    2.236883
    potential(screened) =   -1.104586
       potential(ionic) =   -3.924940
atom: Total number of Sankey-type orbitals: 13

atm_pop: Valence configuration (for local Pseudopot. screening):
 2s( 2.00)                                                            
 2p( 2.00)                                                            
 3d( 0.00)                                                            
Vna: chval, zval:    4.00000   4.00000

Vna:  Cut-off radius for the neutral-atom potential:   5.490449
comcore: Pseudo-core radius Rcore=  1.671741

atom: _________________________________________________________________________

prinput: Basis input 

PAO.BasisType split     

%block ChemicalSpeciesLabel
    1    6 C                       # Species index, atomic number, species label
%endblock ChemicalSpeciesLabel

%block PAO.Basis                 # Define Basis set
# WARNING: This information might be incomplete!
C                     2                    # Species label, number of l-shells
 n=2   0   2                         # n, l, Nzeta 
   4.511      3.076   
   1.000      1.000   
 n=2   1   2 P   1                   # n, l, Nzeta, Polarization, NzetaPol
   5.490      3.744   
   1.000      1.000   
%endblock PAO.Basis

prinput: ----------------------------------------------------------------------

Dumping basis to NetCDF file C.ion.nc
coor:   Atomic-coordinates input format  =     Fractional

siesta: Atomic coordinates (Bohr) and species
siesta:     -0.00600   0.00346  -0.01876  1        1
siesta:      4.02512  -2.32390   0.00000  1        2
siesta:      8.05023  -4.64780   0.00000  1        3
siesta:      4.02512   2.32390   0.00000  1        4
siesta:      8.05023   0.00000   0.00000  1        5
siesta:     12.07535  -2.32390   0.00000  1        6
siesta:      8.05023   4.64780   0.00000  1        7
siesta:     12.07535   2.32390   0.00000  1        8
siesta:     16.10047   0.00000   0.00000  1        9
siesta:      2.68152   0.00000   0.00000  1       10
siesta:      6.70664  -2.32390   0.00000  1       11
siesta:     10.73175  -4.64780   0.00000  1       12
siesta:      6.70664   2.32390   0.00000  1       13
siesta:     10.73175   0.00000   0.00000  1       14
siesta:     14.75687  -2.32390   0.00000  1       15
siesta:     10.73175   4.64780   0.00000  1       16
siesta:     14.75687   2.32390   0.00000  1       17
siesta:     18.78199   0.00000   0.00000  1       18

siesta: System type = slab      

initatomlists: Number of atoms, orbitals, and projectors:     18   234   144

siesta: ******************** Simulation parameters ****************************
siesta:
siesta: The following are some of the parameters of the simulation.
siesta: A complete list of the parameters used, including default values,
siesta: can be found in file out.fdf
siesta:
redata: Spin configuration                          = none
redata: Number of spin components                   = 1
redata: Time-Reversal Symmetry                      = T
redata: Spin spiral                                 = F
redata: Long output                                 =   F
redata: Number of Atomic Species                    =        1
redata: Charge density info will appear in .RHO file
redata: Write Mulliken charges (when)               = none
redata: Write Mulliken Pop.                         = NO
redata: Write Hirshfeld charges (when)              = none
redata: Write Voronoi charges (when)                = none
redata: Write spin charge (when)                    = none
redata: Matel table size (NRTAB)                    =     1024
redata: Mesh Cutoff                                 =   300.0000 Ry
redata: Net charge of the system                    =     0.0000 |e|
redata: Min. number of SCF Iter                     =        0
redata: Max. number of SCF Iter                     =     1000
redata: SCF convergence failure will abort job
redata: SCF mix quantity                            = Hamiltonian
redata: Mix DM or H after convergence               =   F
redata: Recompute H after scf cycle                 =   F
redata: Mix DM in first SCF step                    =   T
redata: Write Pulay info on disk                    =   F
redata: New DM Occupancy tolerance                  = 0.000000000001
redata: No kicks to SCF
redata: DM Mixing Weight for Kicks                  =     0.5000
redata: Require Harris convergence for SCF          =   F
redata: Harris energy tolerance for SCF             =     0.000100 eV
redata: Require DM convergence for SCF              =   T
redata: DM tolerance for SCF                        =     0.000100
redata: Require EDM convergence for SCF             =   F
redata: EDM tolerance for SCF                       =     0.001000 eV
redata: Require H convergence for SCF               =   T
redata: Hamiltonian tolerance for SCF               =     0.001000 eV
redata: Require (free) Energy convergence for SCF   =   F
redata: (free) Energy tolerance for SCF             =     0.000100 eV
redata: Using DFT-D3 dispersion                     =   F
redata: Using Saved Data (generic)                  =   F
redata: Use continuation files for DM               =   T
redata: Neglect nonoverlap interactions             =   F
redata: Method of Calculation                       = Diagonalization
redata: Electronic Temperature                      =   299.9863 K
redata: Fix the spin of the system                  =   F
redata: Max. number of TDED Iter                    =        1
redata: Number of TDED substeps                     =        3
redata: Dynamics option                             = Single-point calculation
mix.SCF: Pulay mixing                            = Pulay
mix.SCF:    Variant                              = stable
mix.SCF:    History steps                        = 2
mix.SCF:    Linear mixing weight                 =     0.250000
mix.SCF:    Mixing weight                        =     0.250000
mix.SCF:    SVD condition                        = 0.1000E-07
redata: Save all siesta data in one NC              =   F
redata: ***********************************************************************

%block SCF.Mixers
  Pulay
%endblock SCF.Mixers

%block SCF.Mixer.Pulay
  # Mixing method
  method pulay
  variant stable

  # Mixing options
  weight 0.2500
  weight.linear 0.2500
  history 2
%endblock SCF.Mixer.Pulay

DM_history_depth set to one: no extrapolation allowed by default for geometry relaxation
Size of DM history Fstack: 1
Total number of electrons:    72.000000
Total ionic charge:    72.000000

siesta: k-grid: Number of k-points = 1
siesta: k-point is Gamma-only

diag: Algorithm                                     = D&C
diag: Used triangular part                          = Lower
diag: Absolute tolerance                            =  0.100E-15
diag: Orthogonalization factor                      =  0.100E-05
diag: Memory factor                                 =  1.0000


ts: **************************************************************
ts: Save H and S matrices                           =    F
ts: Save DM and EDM matrices                        =    F
ts: Only save the overlap matrix S                  =    F
ts: **************************************************************

************************ Begin: TS CHECKS AND WARNINGS ************************
************************ End: TS CHECKS AND WARNINGS **************************


                     ====================================
                        Single-point calculation
                     ====================================

outcell: Unit cell vectors (Ang):
        6.390000   -3.689268    0.000000
        6.390000    3.689268    0.000000
        0.000000    0.000000   20.000000

outcell: Cell vector modules (Ang)   :    7.378536    7.378536   20.000000
outcell: Cell angles (23,13,12) (deg):     90.0000     90.0000     60.0000
outcell: Cell volume (Ang**3)        :    942.9770
Gamma-point calculation with multiply-connected orbital pairs
Folding of H and S implicitly performed
<dSpData1D:S at geom step 0
  <sparsity:sparsity for geom step 0
    nrows_g=234 nrows=234 sparsity=.9938 nnzs=54414, refcount: 7>
  <dData1D:(new from dSpData1D) n=54414, refcount: 1>
refcount: 1>
new_DM -- step:     1
Initializing Density Matrix...

Attempting to read DM from file... Failed...
DM filled with atomic data:
<dSpData2D:DM initialized from atoms
  <sparsity:sparsity for geom step 0
    nrows_g=234 nrows=234 sparsity=.9938 nnzs=54414, refcount: 8>
  <dData2D:DM n=54414 m=1, refcount: 1>
refcount: 1>
No. of atoms with KB's overlaping orbs in proc 0. Max # of overlaps:      18     151

InitMesh: MESH = 72 x 72 x 216 = 1119744
InitMesh: Mesh cutoff (required, used) =   300.000   322.366 Ry
New grid distribution [1]: sub = 2

stepf: Fermi-Dirac step function

siesta: Program's energy decomposition (eV):
siesta: Ebs     =      -877.655942
siesta: Eions   =      5078.910937
siesta: Ena     =      1356.995427
siesta: Ekin    =      2081.085244
siesta: Enl     =      -116.498898
siesta: Eso     =         0.000000
siesta: Edftu   =         0.000000
siesta: DEna    =      -129.943534
siesta: DUscf   =        10.170962
siesta: DUext   =         0.000000
siesta: Ex      =      -925.399101
siesta: Ec      =      -125.185537
siesta: Exc     =     -1050.584638
siesta: EbV     =         0.000000
siesta: eta*DQ  =         0.000000
siesta: Emadel  =         0.000000
siesta: Emeta   =         0.000000
siesta: Emolmec =         0.000000
siesta: Ekinion =         0.000000
siesta: Eharris =     -2898.349384
siesta: Etot    =     -2927.686373
siesta: FreeEng =     -2927.828314

        iscf     Eharris(eV)        E_KS(eV)     FreeEng(eV)     dDmax    Ef(eV) dHmax(eV)
   scf:    1    -2898.349384    -2927.686373    -2927.828314  1.898284 -6.085828  4.084352
timer: Routine,Calls,Time,% = IterSCF        1       2.006  37.94
   scf:    2    -2929.461619    -2928.617286    -2928.758985  0.046682 -5.376309  2.797908
   scf:    3    -2926.841010    -2928.431796    -2928.521133  0.160556 -4.174214  1.929766
   scf:    4    -2923.502993    -2928.105461    -2928.182142  0.179557 -4.310170  2.435040
   scf:    5    -2929.770679    -2929.302484    -2929.441716  0.070454 -4.222668  0.515293
   scf:    6    -2928.610694    -2929.186528    -2929.319246  0.065984 -4.206209  0.683656
   scf:    7    -2929.126427    -2929.306153    -2929.445378  0.060437 -4.217071  0.511556
   scf:    8    -2927.897354    -2928.969617    -2929.090680  0.069706 -4.217773  1.104408
   scf:    9    -2928.875810    -2929.231079    -2929.366230  0.077149 -4.220497  0.716057
   scf:   10    -2926.989285    -2928.739270    -2928.846381  0.122995 -4.221708  1.769291
   scf:   11    -2928.551356    -2929.122502    -2929.251849  0.085054 -4.225274  0.976849
   scf:   12    -2925.336279    -2928.293127    -2928.375161  0.129178 -4.226229  1.682620
   scf:   13    -2927.785079    -2928.886034    -2929.002053  0.128337 -4.229163  1.274626
   scf:   14    -2923.735936    -2927.970910    -2928.035385  0.133656 -4.233259  2.013463
   scf:   15    -2928.484184    -2929.042734    -2929.167543  0.113738 -4.231606  1.064915
   scf:   16    -2924.817312    -2928.242255    -2928.321882  0.155328 -4.236590  2.249189
   scf:   17    -2929.453470    -2929.268775    -2929.406005  0.088253 -4.234557  0.665524
   scf:   18    -2926.881784    -2928.712877    -2928.818112  0.127016 -4.240309  1.798215
   scf:   19    -2929.402236    -2929.348909    -2929.490357  0.083919 -4.237304  0.277710
   scf:   20    -2928.465698    -2929.124784    -2929.253938  0.071996 -4.239943  0.894824
   scf:   21    -2929.371722    -2929.369891    -2929.512535  0.052196 -4.239506  0.167289
   scf:   22    -2929.161537    -2929.316164    -2929.455762  0.042758 -4.240990  0.565188
   scf:   23    -2929.376830    -2929.375159    -2929.518086  0.031049 -4.241137  0.033674
   scf:   24    -2929.362377    -2929.371935    -2929.514680  0.010703 -4.242155  0.124384
   scf:   25    -2929.375746    -2929.375507    -2929.518461  0.007713 -4.242333  0.008720
   scf:   26    -2929.374230    -2929.375184    -2929.518124  0.002645 -4.243056  0.026015
   scf:   27    -2929.375539    -2929.375542    -2929.518501  0.002007 -4.243192  0.005836
   scf:   28    -2929.375371    -2929.375496    -2929.518454  0.000970 -4.243699  0.012076
   scf:   29    -2929.375531    -2929.375542    -2929.518503  0.000846 -4.243795  0.003447
   scf:   30    -2929.375495    -2929.375531    -2929.518490  0.000574 -4.244148  0.007149
   scf:   31    -2929.375531    -2929.375541    -2929.518502  0.000491 -4.244226  0.003219
   scf:   32    -2929.375485    -2929.375527    -2929.518488  0.000584 -4.244461  0.006089
   scf:   33    -2929.375512    -2929.375536    -2929.518496  0.000553 -4.244525  0.006516
   scf:   34    -2929.375379    -2929.375497    -2929.518457  0.000828 -4.244681  0.009672
   scf:   35    -2929.375426    -2929.375510    -2929.518471  0.001094 -4.244731  0.007840
   scf:   36    -2929.374956    -2929.375381    -2929.518330  0.001894 -4.244836  0.026761
   scf:   37    -2929.375146    -2929.375430    -2929.518387  0.001849 -4.244875  0.017250
   scf:   38    -2929.373344    -2929.374929    -2929.517860  0.003544 -4.244947  0.039464
   scf:   39    -2929.374157    -2929.375153    -2929.518088  0.003542 -4.244972  0.043256
   scf:   40    -2929.367702    -2929.373338    -2929.516190  0.005366 -4.245029  0.075885
   scf:   41    -2929.370261    -2929.374067    -2929.516957  0.007304 -4.245043  0.058267
   scf:   42    -2929.347236    -2929.367614    -2929.510127  0.012720 -4.245070  0.197127
   scf:   43    -2929.356191    -2929.370107    -2929.512785  0.012104 -4.245093  0.140203
   scf:   44    -2929.270865    -2929.346243    -2929.487674  0.022128 -4.245106  0.267692
   scf:   45    -2929.305939    -2929.355953    -2929.497830  0.025420 -4.245096  0.286607
   scf:   46    -2929.006440    -2929.272571    -2929.410078  0.038771 -4.245169  0.601699
   scf:   47    -2929.131684    -2929.307052    -2929.446430  0.046398 -4.245083  0.490040
   scf:   48    -2928.257706    -2929.065690    -2929.191610  0.084729 -4.245184  1.192321
   scf:   49    -2928.601860    -2929.155670    -2929.286774  0.065728 -4.244997  0.953500
   scf:   50    -2926.285485    -2928.540863    -2928.637850  0.109420 -4.244638  1.543227
   scf:   51    -2927.577862    -2928.856608    -2928.971074  0.136717 -4.244438  1.266932
   scf:   52    -2924.464290    -2928.128598    -2928.201710  0.145144 -4.244515  2.204241
   scf:   53    -2927.212002    -2928.739929    -2928.847522  0.119639 -4.242847  1.671000
   scf:   54    -2924.098268    -2928.025165    -2928.092689  0.183849 -4.243935  2.327119
   scf:   55    -2926.105647    -2928.375392    -2928.462232  0.144534 -4.241759  1.853674
   scf:   56    -2922.637315    -2927.805073    -2927.861674  0.156297 -4.240964  2.273156
   scf:   57    -2927.510996    -2928.749497    -2928.857925  0.149131 -4.240975  1.166027
   scf:   58    -2922.011713    -2927.545585    -2927.586038  0.159736 -4.240509  2.358908
   scf:   59    -2928.466742    -2928.960974    -2929.081141  0.105012 -4.241047  1.336270
   scf:   60    -2923.684315    -2927.934427    -2927.997388  0.167879 -4.240348  2.357947
   scf:   61    -2928.564181    -2929.002656    -2929.125271  0.109108 -4.240972  0.911867
   scf:   62    -2923.092124    -2927.775818    -2927.828720  0.134395 -4.242142  1.968521
   scf:   63    -2929.648734    -2929.320155    -2929.460020  0.087124 -4.241169  0.378392
   scf:   64    -2927.996839    -2928.998557    -2929.121295  0.070127 -4.242387  1.015345
   scf:   65    -2929.100754    -2929.293513    -2929.431985  0.064896 -4.242352  0.556500
   scf:   66    -2927.188453    -2928.773239    -2928.883354  0.077895 -4.243041  1.173229
   scf:   67    -2928.971185    -2929.254864    -2929.391485  0.074734 -4.242996  0.605123
   scf:   68    -2926.910344    -2928.717089    -2928.822757  0.111435 -4.243317  1.716265
   scf:   69    -2928.978459    -2929.237699    -2929.373250  0.089977 -4.243260  0.594513
   scf:   70    -2925.885752    -2928.430599    -2928.521295  0.106905 -4.243593  1.537785
   scf:   71    -2929.047640    -2929.258423    -2929.394974  0.086635 -4.243309  0.707031
   scf:   72    -2926.287474    -2928.538346    -2928.634947  0.116597 -4.244104  1.660368
   scf:   73    -2929.131494    -2929.283773    -2929.421903  0.069796 -4.243521  0.482767
   scf:   74    -2926.728796    -2928.656610    -2928.759636  0.090226 -4.243289  1.360529
   scf:   75    -2929.338096    -2929.348034    -2929.489509  0.075918 -4.243663  0.246755
   scf:   76    -2928.305839    -2929.078164    -2929.205054  0.057112 -4.244057  0.809417
   scf:   77    -2929.381247    -2929.374809    -2929.517704  0.042141 -4.244027  0.061018
   scf:   78    -2929.345717    -2929.367224    -2929.509755  0.014173 -4.244359  0.185576
   scf:   79    -2929.375506    -2929.375420    -2929.518368  0.009711 -4.244401  0.019356
   scf:   80    -2929.370509    -2929.374144    -2929.517022  0.004776 -4.244620  0.056732
   scf:   81    -2929.375558    -2929.375535    -2929.518494  0.003307 -4.244656  0.005632
   scf:   82    -2929.375169    -2929.375441    -2929.518393  0.001463 -4.244804  0.016185
   scf:   83    -2929.375539    -2929.375544    -2929.518504  0.001113 -4.244831  0.002164
   scf:   84    -2929.375496    -2929.375531    -2929.518491  0.000529 -4.244931  0.006603
   scf:   85    -2929.375539    -2929.375543    -2929.518504  0.000468 -4.244949  0.002275
   scf:   86    -2929.375497    -2929.375531    -2929.518492  0.000350 -4.245016  0.005292
   scf:   87    -2929.375537    -2929.375542    -2929.518503  0.000363 -4.245029  0.002819
   scf:   88    -2929.375472    -2929.375525    -2929.518484  0.000637 -4.245075  0.007799
   scf:   89    -2929.375536    -2929.375542    -2929.518503  0.000539 -4.245084  0.001919
   scf:   90    -2929.375473    -2929.375524    -2929.518484  0.000551 -4.245116  0.006537
   scf:   91    -2929.375536    -2929.375542    -2929.518503  0.000466 -4.245122  0.003313
   scf:   92    -2929.375460    -2929.375520    -2929.518481  0.000687 -4.245144  0.009975
   scf:   93    -2929.375534    -2929.375541    -2929.518502  0.000517 -4.245148  0.002735
   scf:   94    -2929.375432    -2929.375513    -2929.518472  0.000645 -4.245163  0.009239
   scf:   95    -2929.375528    -2929.375539    -2929.518501  0.000560 -4.245166  0.003864
   scf:   96    -2929.375404    -2929.375505    -2929.518463  0.000673 -4.245175  0.008686
   scf:   97    -2929.375525    -2929.375539    -2929.518500  0.000627 -4.245178  0.003846
   scf:   98    -2929.375359    -2929.375491    -2929.518452  0.000981 -4.245185  0.015185
   scf:   99    -2929.375523    -2929.375538    -2929.518498  0.000900 -4.245186  0.004160
   scf:  100    -2929.375306    -2929.375477    -2929.518435  0.000916 -4.245192  0.013389
   scf:  101    -2929.375512    -2929.375534    -2929.518496  0.000666 -4.245192  0.006539
   scf:  102    -2929.375240    -2929.375459    -2929.518413  0.001304 -4.245195  0.018616
   scf:  103    -2929.375501    -2929.375532    -2929.518493  0.000840 -4.245196  0.005316
   scf:  104    -2929.375139    -2929.375430    -2929.518387  0.001106 -4.245199  0.016289
   scf:  105    -2929.375495    -2929.375530    -2929.518490  0.001164 -4.245199  0.006599
   scf:  106    -2929.375019    -2929.375396    -2929.518352  0.001204 -4.245202  0.019192
   scf:  107    -2929.375476    -2929.375524    -2929.518485  0.001140 -4.245201  0.008063
   scf:  108    -2929.374868    -2929.375355    -2929.518302  0.001913 -4.245201  0.029674
   scf:  109    -2929.375450    -2929.375518    -2929.518479  0.001620 -4.245203  0.008577
   scf:  110    -2929.374659    -2929.375296    -2929.518244  0.001746 -4.245203  0.025981
   scf:  111    -2929.375430    -2929.375513    -2929.518471  0.001346 -4.245203  0.012253
   scf:  112    -2929.374382    -2929.375216    -2929.518166  0.002256 -4.245205  0.032963
   scf:  113    -2929.375398    -2929.375501    -2929.518460  0.001481 -4.245204  0.009731
   scf:  114    -2929.374039    -2929.375122    -2929.518058  0.002119 -4.245204  0.033955
   scf:  115    -2929.375340    -2929.375486    -2929.518446  0.002271 -4.245205  0.011422
   scf:  116    -2929.373605    -2929.375002    -2929.517930  0.002434 -4.245203  0.038814
   scf:  117    -2929.375286    -2929.375473    -2929.518428  0.002207 -4.245204  0.016311
   scf:  118    -2929.372972    -2929.374820    -2929.517751  0.003660 -4.245206  0.057172
   scf:  119    -2929.375220    -2929.375449    -2929.518404  0.002978 -4.245204  0.016674
   scf:  120    -2929.372217    -2929.374610    -2929.517522  0.003227 -4.245205  0.047973
   scf:  121    -2929.375101    -2929.375417    -2929.518375  0.002620 -4.245205  0.023238
   scf:  122    -2929.371256    -2929.374345    -2929.517233  0.004115 -4.245201  0.059300
   scf:  123    -2929.374970    -2929.375384    -2929.518335  0.002906 -4.245204  0.019175
   scf:  124    -2929.369863    -2929.373949    -2929.516833  0.004221 -4.245205  0.070838
   scf:  125    -2929.374819    -2929.375337    -2929.518284  0.004514 -4.245203  0.021683
   scf:  126    -2929.368207    -2929.373483    -2929.516343  0.004882 -4.245207  0.076617
   scf:  127    -2929.374579    -2929.375267    -2929.518217  0.004198 -4.245204  0.033089
   scf:  128    -2929.366009    -2929.372876    -2929.515680  0.007158 -4.245200  0.110313
   scf:  129    -2929.374279    -2929.375186    -2929.518130  0.005556 -4.245204  0.032180
   scf:  130    -2929.363077    -2929.372050    -2929.514828  0.005998 -4.245202  0.088143
   scf:  131    -2929.373930    -2929.375088    -2929.518019  0.005094 -4.245200  0.043672
   scf:  132    -2929.359412    -2929.371016    -2929.513757  0.007416 -4.245207  0.104860
   scf:  133    -2929.373454    -2929.374944    -2929.517876  0.005910 -4.245201  0.037635
   scf:  134    -2929.354559    -2929.369666    -2929.512299  0.008819 -4.245198  0.145211
   scf:  135    -2929.372802    -2929.374766    -2929.517692  0.008892 -4.245202  0.041982
   scf:  136    -2929.348602    -2929.368000    -2929.510550  0.009588 -4.245195  0.148831
   scf:  137    -2929.372034    -2929.374553    -2929.517454  0.007860 -4.245196  0.065310
   scf:  138    -2929.340647    -2929.365755    -2929.508228  0.013599 -4.245205  0.207613
   scf:  139    -2929.371083    -2929.374267    -2929.517158  0.010037 -4.245195  0.060426
   scf:  140    -2929.330568    -2929.362939    -2929.505225  0.010875 -4.245196  0.167781
   scf:  141    -2929.369700    -2929.373884    -2929.516770  0.009900 -4.245197  0.079390
   scf:  142    -2929.318237    -2929.359502    -2929.501581  0.012895 -4.245183  0.189788
   scf:  143    -2929.368068    -2929.373422    -2929.516264  0.011562 -4.245189  0.071310
   scf:  144    -2929.301226    -2929.354715    -2929.496605  0.017585 -4.245195  0.286149
   scf:  145    -2929.366139    -2929.372860    -2929.515667  0.016827 -4.245182  0.082404
   scf:  146    -2929.281366    -2929.349154    -2929.490733  0.018125 -4.245192  0.278635
   scf:  147    -2929.363469    -2929.372099    -2929.514893  0.014178 -4.245183  0.123767
   scf:  148    -2929.256975    -2929.342397    -2929.483542  0.024906 -4.245165  0.373734
   scf:  149    -2929.360383    -2929.371195    -2929.513927  0.017402 -4.245175  0.109389
   scf:  150    -2929.223576    -2929.333020    -2929.473739  0.020110 -4.245172  0.313327
   scf:  151    -2929.356708    -2929.370174    -2929.512828  0.019555 -4.245158  0.135996
   scf:  152    -2929.187850    -2929.323001    -2929.463231  0.022399 -4.245180  0.341925
   scf:  153    -2929.352378    -2929.368894    -2929.511514  0.021293 -4.245155  0.130762
   scf:  154    -2929.146688    -2929.311583    -2929.451073  0.032285 -4.245140  0.515504
   scf:  155    -2929.348289    -2929.367666    -2929.510226  0.029289 -4.245146  0.146740
   scf:  156    -2929.101263    -2929.298855    -2929.437712  0.030999 -4.245128  0.474372
   scf:  157    -2929.343902    -2929.366466    -2929.508917  0.023415 -4.245119  0.202347
   scf:  158    -2929.061044    -2929.287613    -2929.425986  0.039308 -4.245149  0.591605
   scf:  159    -2929.339623    -2929.365100    -2929.507504  0.026532 -4.245108  0.166441
   scf:  160    -2929.009915    -2929.273340    -2929.410820  0.031470 -4.245109  0.491499
   scf:  161    -2929.335517    -2929.364011    -2929.506391  0.030557 -4.245102  0.190050
   scf:  162    -2928.973654    -2929.263256    -2929.400163  0.032643 -4.245072  0.513791
   scf:  163    -2929.332595    -2929.363115    -2929.505394  0.031168 -4.245075  0.186146
   scf:  164    -2928.945946    -2929.255715    -2929.392360  0.044176 -4.245098  0.708470
   scf:  165    -2929.333054    -2929.363018    -2929.505292  0.039039 -4.245056  0.187558
   scf:  166    -2928.931028    -2929.251356    -2929.387728  0.039864 -4.245087  0.607020
   scf:  167    -2929.333765    -2929.363348    -2929.505690  0.029780 -4.245058  0.233921
   scf:  168    -2928.948860    -2929.256478    -2929.392975  0.046392 -4.245045  0.691889
   scf:  169    -2929.336491    -2929.363912    -2929.506254  0.031624 -4.245048  0.178836
   scf:  170    -2928.954827    -2929.257961    -2929.394685  0.033738 -4.245061  0.521706
   scf:  171    -2929.340843    -2929.365369    -2929.507759  0.030373 -4.245035  0.181341
   scf:  172    -2929.002787    -2929.271303    -2929.408804  0.031000 -4.245086  0.477822
   scf:  173    -2929.346393    -2929.366971    -2929.509488  0.028893 -4.245049  0.145388
   scf:  174    -2929.061932    -2929.287947    -2929.426165  0.036059 -4.245059  0.576801
   scf:  175    -2929.353200    -2929.368922    -2929.511547  0.032530 -4.245063  0.133257
   scf:  176    -2929.127720    -2929.306242    -2929.445484  0.029788 -4.245069  0.463263
   scf:  177    -2929.359110    -2929.370757    -2929.513444  0.023830 -4.245070  0.142860
   scf:  178    -2929.194147    -2929.324761    -2929.465092  0.030374 -4.245113  0.469871
   scf:  179    -2929.364175    -2929.372183    -2929.514960  0.022983 -4.245091  0.101352
   scf:  180    -2929.246076    -2929.339272    -2929.480305  0.020211 -4.245118  0.301952
   scf:  181    -2929.367596    -2929.373242    -2929.516094  0.015364 -4.245116  0.096091
   scf:  182    -2929.287790    -2929.350996    -2929.492611  0.018350 -4.245120  0.270010
   scf:  183    -2929.370207    -2929.374000    -2929.516876  0.012176 -4.245131  0.058915
   scf:  184    -2929.315559    -2929.358732    -2929.500821  0.013077 -4.245150  0.206277
   scf:  185    -2929.372050    -2929.374531    -2929.517429  0.012644 -4.245145  0.047579
   scf:  186    -2929.335951    -2929.364441    -2929.506836  0.010832 -4.245167  0.171409
   scf:  187    -2929.373246    -2929.374869    -2929.517799  0.009669 -4.245162  0.046561
   scf:  188    -2929.349487    -2929.368247    -2929.510799  0.011068 -4.245167  0.174761
   scf:  189    -2929.374035    -2929.375110    -2929.518052  0.009402 -4.245173  0.035713
   scf:  190    -2929.358831    -2929.370865    -2929.513572  0.007851 -4.245177  0.121251
   scf:  191    -2929.374589    -2929.375272    -2929.518214  0.006059 -4.245179  0.034783
   scf:  192    -2929.364779    -2929.372520    -2929.515338  0.007335 -4.245190  0.112284
   scf:  193    -2929.374955    -2929.375368    -2929.518319  0.005383 -4.245186  0.022916
   scf:  194    -2929.368671    -2929.373616    -2929.516474  0.004490 -4.245192  0.067195
   scf:  195    -2929.375148    -2929.375429    -2929.518388  0.003549 -4.245193  0.020520
   scf:  196    -2929.371220    -2929.374335    -2929.517223  0.003852 -4.245193  0.056493
   scf:  197    -2929.375291    -2929.375474    -2929.518430  0.002743 -4.245196  0.012773
   scf:  198    -2929.372749    -2929.374759    -2929.517684  0.002852 -4.245199  0.046889
   scf:  199    -2929.375394    -2929.375499    -2929.518456  0.002801 -4.245198  0.009882
   scf:  200    -2929.373771    -2929.375045    -2929.517984  0.002353 -4.245201  0.037149
   scf:  201    -2929.375446    -2929.375514    -2929.518475  0.002058 -4.245201  0.010002
   scf:  202    -2929.374420    -2929.375230    -2929.518170  0.002337 -4.245201  0.036810
   scf:  203    -2929.375475    -2929.375525    -2929.518486  0.001950 -4.245202  0.007473
   scf:  204    -2929.374832    -2929.375345    -2929.518294  0.001625 -4.245202  0.024992
   scf:  205    -2929.375504    -2929.375533    -2929.518493  0.001232 -4.245203  0.007164
   scf:  206    -2929.375082    -2929.375413    -2929.518371  0.001494 -4.245204  0.022751
   scf:  207    -2929.375522    -2929.375536    -2929.518497  0.001076 -4.245204  0.004653
   scf:  208    -2929.375255    -2929.375463    -2929.518420  0.000901 -4.245204  0.013417
   scf:  209    -2929.375526    -2929.375539    -2929.518500  0.000726 -4.245204  0.004100
   scf:  210    -2929.375364    -2929.375493    -2929.518450  0.000756 -4.245204  0.011021
   scf:  211    -2929.375532    -2929.375541    -2929.518502  0.000581 -4.245205  0.002619
   scf:  212    -2929.375425    -2929.375510    -2929.518471  0.000611 -4.245205  0.009978
   scf:  213    -2929.375539    -2929.375542    -2929.518503  0.000586 -4.245205  0.002026
   scf:  214    -2929.375468    -2929.375522    -2929.518483  0.000492 -4.245205  0.007746
   scf:  215    -2929.375540    -2929.375542    -2929.518504  0.000424 -4.245205  0.002096
   scf:  216    -2929.375499    -2929.375532    -2929.518491  0.000483 -4.245205  0.007571
   scf:  217    -2929.375540    -2929.375543    -2929.518504  0.000396 -4.245205  0.001543
   scf:  218    -2929.375514    -2929.375536    -2929.518496  0.000332 -4.245205  0.005085
   scf:  219    -2929.375542    -2929.375544    -2929.518505  0.000248 -4.245205  0.001461
   scf:  220    -2929.375523    -2929.375538    -2929.518500  0.000301 -4.245205  0.004562
   scf:  221    -2929.375543    -2929.375544    -2929.518505  0.000213 -4.245205  0.000938
   scf:  222    -2929.375532    -2929.375541    -2929.518502  0.000179 -4.245205  0.002724
   scf:  223    -2929.375543    -2929.375544    -2929.518505  0.000147 -4.245205  0.000814
   scf:  224    -2929.375537    -2929.375542    -2929.518503  0.000147 -4.245205  0.002150
   scf:  225    -2929.375543    -2929.375544    -2929.518505  0.000122 -4.245205  0.000534
   scf:  226    -2929.375538    -2929.375542    -2929.518504  0.000130 -4.245205  0.002108
   scf:  227    -2929.375544    -2929.375544    -2929.518505  0.000122 -4.245205  0.000428
   scf:  228    -2929.375540    -2929.375543    -2929.518504  0.000103 -4.245206  0.001609
   scf:  229    -2929.375544    -2929.375544    -2929.518505  0.000087 -4.245205  0.000437

SCF Convergence by DM+H criterion
max |DM_out - DM_in|         :     0.0000868816
max |H_out - H_in|      (eV) :     0.0004373190
SCF cycle converged after 229 iterations

Using DM_out to compute the final energy and forces
No. of atoms with KB's overlaping orbs in proc 0. Max # of overlaps:      18     151

siesta: E_KS(eV) =            -2929.3755

siesta: E_KS - E_eggbox =     -2929.3755

siesta: Atomic forces (eV/Ang):
----------------------------------------
   Tot    0.003433   -0.000443    0.000003
----------------------------------------
   Max    0.237297
   Res    0.085341    sqrt( Sum f_i^2 / 3N )
----------------------------------------
   Max    0.237297    constrained

Stress tensor Voigt[x,y,z,yz,xz,xy] (kbar):      -28.34      -32.47        0.03       -0.00        0.00       -0.65
(Free)E + p*V (eV/cell)    -2917.5931
Target enthalpy (eV/cell)    -2929.5185

siesta: Program's energy decomposition (eV):
siesta: Ebs     =      -962.858162
siesta: Eions   =      5078.910937
siesta: Ena     =      1356.995427
siesta: Ekin    =      2020.227697
siesta: Enl     =      -105.746192
siesta: Eso     =         0.000000
siesta: Edftu   =         0.000000
siesta: DEna    =       -88.800781
siesta: DUscf   =         6.195730
siesta: DUext   =         0.000000
siesta: Ex      =      -914.734661
siesta: Ec      =      -124.601827
siesta: Exc     =     -1039.336488
siesta: EbV     =         0.000000
siesta: eta*DQ  =         0.000000
siesta: Emadel  =         0.000000
siesta: Emeta   =         0.000000
siesta: Emolmec =         0.000000
siesta: Ekinion =         0.000000
siesta: Eharris =     -2929.375544
siesta: Etot    =     -2929.375544
siesta: FreeEng =     -2929.518505

siesta: Final energy (eV):
siesta:  Band Struct. =    -962.858162
siesta:       Kinetic =    2020.227697
siesta:       Hartree =   13948.832838
siesta:         Edftu =       0.000000
siesta:       Eso     =       0.000000
siesta:    Ext. field =       0.000000
siesta:         Exch. =    -914.734661
siesta:         Corr. =    -124.601827
siesta:     Bulk bias =       0.000000
siesta:   Exch.-corr. =   -1039.336488
siesta:  Ion-electron =  -29733.885711
siesta:       Ion-ion =   11874.786120
siesta:       Ekinion =       0.000000
siesta: D3 dispersion =       0.000000
siesta:         Total =   -2929.375544
siesta:         Fermi =      -4.245205

siesta: Atomic forces (eV/Ang):
siesta:      1    0.237297   -0.041296    0.107483
siesta:      2    0.144489    0.094492    0.006370
siesta:      3    0.073993   -0.026838    0.006608
siesta:      4    0.084833   -0.044994    0.006493
siesta:      5    0.009997    0.091095   -0.004582
siesta:      6    0.165578    0.094140    0.006539
siesta:      7    0.155401    0.076458    0.006612
siesta:      8    0.095005   -0.027320    0.006423
siesta:      9    0.009998    0.091097   -0.004581
siesta:     10   -0.117635    0.013140   -0.053666
siesta:     11   -0.157297   -0.005883    0.009948
siesta:     12   -0.153331   -0.050032   -0.052118
siesta:     13   -0.085929   -0.130016    0.010069
siesta:     14   -0.014363   -0.005377    0.009122
siesta:     15   -0.160282   -0.004241   -0.002586
siesta:     16   -0.189897    0.014023   -0.052187
siesta:     17   -0.084729   -0.134716   -0.002674
siesta:     18   -0.009696   -0.004175   -0.003271
siesta: ----------------------------------------
siesta:    Tot    0.003433   -0.000443    0.000003

siesta: Stress tensor (static) (eV/Ang**3):
siesta:    -0.017691   -0.000406    0.000002
siesta:    -0.000406   -0.020267   -0.000000
siesta:     0.000002   -0.000000    0.000019

siesta: Cell volume =        942.976973 Ang**3

siesta: Pressure (static):
siesta:                Solid            Molecule  Units
siesta:           0.00013774          0.00014564  Ry/Bohr**3
siesta:           0.01264652          0.01337236  eV/Ang**3
siesta:          20.26196447         21.42488256  kBar
(Free)E+ p_basis*V_orbitals  =       -2922.483244
(Free)Eharris+ p_basis*V_orbitals  =       -2922.483244

siesta: Electric dipole (a.u.)  =   -0.000000   -0.000000    0.000001
siesta: Electric dipole (Debye) =   -0.000000   -0.000000    0.000002

cite: Please see "siesta.bib" for an exhaustive BiBTeX file.
cite: Please clearly indicate Siesta version in published work: 5.2.1
cite: This calculation has made use of the following articles
cite: which are encouraged to be cited in a published work.
        Primary SIESTA paper
          DOI: www.doi.org/10.1088/0953-8984/14/11/302


timer: Elapsed wall time (sec) =     250.884
timer: CPU execution times (sec):

Routine            Calls   Time/call    Tot.time        %
siesta                 1     467.710     467.710   100.00
Setup                  1       0.983       0.983     0.21
bands                  1       0.000       0.000     0.00
KSV_init               1       0.000       0.000     0.00
IterGeom               1     466.724     466.724    99.79
geom_init              1       2.289       2.289     0.49
state_init             1       0.088       0.088     0.02
hsparse                1       0.005       0.005     0.00
overlap                1       0.081       0.081     0.02
Setup_H0               1       1.190       1.190     0.25
naefs                  2       0.000       0.000     0.00
dnaefs                 2       0.000       0.000     0.00
MolMec                 2       0.000       0.000     0.00
kinefsm                2       0.048       0.097     0.02
nlefsm                 2       0.058       0.115     0.02
DHSCF_Init             1       1.031       1.031     0.22
DHSCF1                 1       0.018       0.018     0.00
InitMesh               1       0.018       0.018     0.00
INITMESH               1       0.000       0.000     0.00
DHSCF2                 1       1.012       1.012     0.22
REMESH                 1       0.052       0.052     0.01
REORD                477       0.001       0.664     0.14
PHION                  1       0.823       0.823     0.18
COMM_BSC             927       0.001       0.848     0.18
POISON               232       0.042       9.650     2.06
fft                  464       0.015       6.786     1.45
setup_H              230       1.888     434.339    92.86
DHSCF                231       1.887     435.965    93.21
DHSCF3               231       1.881     434.449    92.89
rhoofd               231       1.368     316.018    67.57
XC                   231       0.030       7.020     1.50
GXC-CellXC           231       0.027       6.153     1.32
gridxc@cellXC        231       0.027       6.152     1.32
vmat                 231       0.384      88.771    18.98
IterSCF              229       2.017     461.910    98.76
compute_dm           229       0.123      28.251     6.04
diagon               229       0.122      28.012     5.99
r-eigvec             229       0.057      13.067     2.79
r-buildHS            229       0.000       0.025     0.01
rdiag                229       0.057      13.039     2.79
rdiag1               229       0.003       0.716     0.15
rdiag2               229       0.007       1.565     0.33
rdiag3               229       0.045      10.281     2.20
rdiag4               229       0.002       0.448     0.10
r-buildD             229       0.064      14.646     3.13
MIXER                228       0.000       0.087     0.02
PostSCF                1       2.523       2.523     0.54
FINAL_HF               1       2.523       2.523     0.54
DHSCF4                 1       1.514       1.514     0.32
dfscf                  1       1.415       1.415     0.30
overfsm                1       0.020       0.020     0.00
writeHSX               1       0.000       0.000     0.00
state_analysis         1       0.000       0.000     0.00
siesta_move            1       0.000       0.000     0.00
Analysis               1       0.001       0.001     0.00
optical                1       0.000       0.000     0.00
  

>> End of run:  17-JUN-2025  16:40:22
Job completed
