Executable      : siesta
Version         : 5.2.1
Architecture    : x86_64
Compiler version: GNU-13.3.0
Compiler flags  : -march=nocona -mtune=haswell -ftree-vectorize -fPIC -fstack-protector-strong -fno-plt -O2 -ffunction-sections -pipe -isystem <prefix>/include -I<prefix>/_build_env/include -fdebug-prefix-map=<prefix>/work=/usr/local/src/conda/siesta-5.2.1 -fdebug-prefix-map=<prefix>=/usr/local/src/conda-prefix -I<prefix>/lib -fallow-argument-mismatch -O3
Parallelisations: none
NetCDF support
NetCDF-4 support
Lua support
DFT-D3 support

Runtime information:
* Directory : /home/samba/homes/convidat/Documents/SSN_FP_June16/Graphene4x4/disp-001
* Running in serial mode.
>> Start of run:  17-JUN-2025  17:02:52

                           *********************** 
                           *  WELCOME TO SIESTA  * 
                           *********************** 

 NOTE: Siesta V5 introduces some new defaults for basis-set generation
 NOTE: which might lead to slightly different numerical results.
 NOTE: Please see the manual for full details and compatibility measures.


reinit: Reading from standard input
reinit: Dumping input in INPUT_TMP.88088
************************** Dump of input data file ****************************
NumberOfAtoms 32
%block LatticeVectors
   16.1004666876633600   -9.2956087506980349    0.0000000000000000
   16.1004666876633600    9.2956087506980349    0.0000000000000000
    0.0000000000000000    0.0000000000000000   37.7945227409938056
%endblock LatticeVectors
AtomicCoordinatesFormat  Fractional
NumberOfSpecies 1
%block ChemicalSpeciesLabel
 1 6 C
%endblock ChemicalSpeciesLabel
LatticeConstant 1.0 Bohr
%block AtomicCoordinatesAndAtomicSpecies
   0.0004748385029496  -0.0000000000000000   0.0004748385029496 1
   0.2500000000000000   0.0000000000000000   0.0000000000000000 1
   0.5000000000000000   0.0000000000000000   0.0000000000000000 1
   0.7500000000000000   0.0000000000000001   0.0000000000000000 1
   0.0000000000000000   0.2500000000000000   0.0000000000000000 1
   0.2500000000000000   0.2500000000000000   0.0000000000000000 1
   0.5000000000000000   0.2500000000000001   0.0000000000000000 1
   0.7499999999999999   0.2500000000000001   0.0000000000000000 1
   0.0000000000000000   0.5000000000000000   0.0000000000000000 1
   0.2500000000000001   0.5000000000000000   0.0000000000000000 1
   0.5000000000000000   0.5000000000000000   0.0000000000000000 1
   0.7500000000000001   0.5000000000000001   0.0000000000000000 1
   0.0000000000000001   0.7500000000000000   0.0000000000000000 1
   0.2500000000000000   0.7500000000000000   0.0000000000000000 1
   0.5000000000000000   0.7500000000000000   0.0000000000000000 1
   0.7500000000000001   0.7500000000000001   0.0000000000000000 1
   0.0832746478873240   0.0832746478873240   0.0000000000000000 1
   0.3332746478873240   0.0832746478873240   0.0000000000000000 1
   0.5832746478873240   0.0832746478873240   0.0000000000000000 1
   0.8332746478873240   0.0832746478873240   0.0000000000000000 1
   0.0832746478873240   0.3332746478873240   0.0000000000000000 1
   0.3332746478873240   0.3332746478873240   0.0000000000000000 1
   0.5832746478873240   0.3332746478873241   0.0000000000000000 1
   0.8332746478873241   0.3332746478873241   0.0000000000000000 1
   0.0832746478873240   0.5832746478873240   0.0000000000000000 1
   0.3332746478873240   0.5832746478873240   0.0000000000000000 1
   0.5832746478873241   0.5832746478873241   0.0000000000000000 1
   0.8332746478873240   0.5832746478873240   0.0000000000000000 1
   0.0832746478873240   0.8332746478873240   0.0000000000000000 1
   0.3332746478873241   0.8332746478873241   0.0000000000000000 1
   0.5832746478873240   0.8332746478873240   0.0000000000000000 1
   0.8332746478873240   0.8332746478873240   0.0000000000000000 1
%endblock AtomicCoordinatesAndAtomicSpecies
************************** End of input data file *****************************

reinit: -----------------------------------------------------------------------
reinit: System Name: 
reinit: -----------------------------------------------------------------------
reinit: System Label: siesta
reinit: -----------------------------------------------------------------------

initatom: Reading input for the pseudopotentials and atomic orbitals ----------
Species number:   1 Atomic number:    6 Label: C

Ground state valence configuration (from tables):   2s02  2p02  3d00  4f00

---- Processing specs for species: C
Reading pseudopotential information in PSML from:
  C.psml
PSML file version: 1.1
Using libxc ids:  101 130
GGA--PBE XC_GGA_X_PBE--XC_GGA_C_PBE pb
PSML uuid: 297821e0-be41-11e7-6802-e1ff7dfff095

---- Pseudopotential check for C 

Pseudized shells:
2s( 2.00) rc: 1.20
2p( 2.00) rc: 1.26
Valence configuration for ps generation: 2s:2p: Total charge:   4.000000
For C, standard SIESTA heuristics set lmxkb to 3
 (one more than the basis l, including polarization orbitals).
Use PS.lmax or PS.KBprojectors blocks to override.
C pseudopotential only contains V_ls up to l=1 -- lmxkb reset.

<basis_specs>
===============================================================================
C                    Z=   6    Mass=  12.011        Charge= 0.17977+309
Lmxo=2 Lmxkb= 1    BasisType=split      Semic=F
L=0  Nsemic=0  Cnfigmx=2
          i=1  nzeta=2  polorb=0  (2s)
            splnorm:   0.15000    
               vcte:    40.000    
               rinn:  -0.90000    
               qcoe:    0.0000    
               qyuk:    0.0000    
               qwid:   0.10000E-01
                rcs:    0.0000      0.0000    
            lambdas:    1.0000      1.0000    
L=1  Nsemic=0  Cnfigmx=2
          i=1  nzeta=2  polorb=1  (2p)  (to be polarized perturbatively)
            splnorm:   0.15000    
               vcte:    40.000    
               rinn:  -0.90000    
               qcoe:    0.0000    
               qyuk:    0.0000    
               qwid:   0.10000E-01
                rcs:    0.0000      0.0000    
            lambdas:    1.0000      1.0000    
L=2  Nsemic=0  Cnfigmx=3
          i=1  nzeta=0  polorb=0  (3d)  (perturbative polarization orbital) (from 2p)
-------------------------------------------------------------------------------
L=0  Nkbl=1  erefs: 0.17977+309
L=1  Nkbl=1  erefs: 0.17977+309
===============================================================================
</basis_specs>

Using PAO.SplitTailNorm
atom: Called for C                     (Z =   6)
NOTE: C pseudopotential has channels up to l= 1
NOTE: PAOs with higher l will be generated with V_local
Maximum radius (at nrval) set to   50.00000 8518

read_vps: Pseudopotential generation method:
read_vps: ONCVPSP-3.Hamann's oncvpsp                        
Valence charge in pseudo generation:    4.00000

read_vps: Pseudopotential includes a core correction:
read_vps: Pseudo-core for xc-correction

xc_check: Exchange-correlation functional:
xc_check: Ceperley-Alder
xc_check: WARNING: Pseudopotential generated with GGA PBE functional
Got Vlocal (oncv-fit) from psml data
Choosing vlocal chloc cutoff:  4.122282
qtot up to nchloc:    4.00001153
atom: Maximum radius for chlocal:    4.12228
atom: Maximum radius for r*vlocal+2*Zval:    4.12228
Reading KB projs from C psml data
Using scalar-relativistic projectors in PSML file

PSML: Kleinman-Bylander projectors: 
   l= 0   rc=  1.219773   Ekb= 12.963096
   l= 0   rc=  1.219773   Ekb=  0.771007
   l= 1   rc=  1.278952   Ekb= -8.399923
   l= 1   rc=  1.278952   Ekb= -1.755033

PSML: Total number of  Kleinman-Bylander projectors:   8
atom: -------------------------------------------------------------------------

atom: SANKEY-TYPE ORBITALS:
atom: Selected multiple-zeta basis: split     

SPLIT: Orbitals with angular momentum L= 0

SPLIT: Basis orbitals for state 2s

SPLIT: PAO cut-off radius determined from an
SPLIT: energy shift=  0.010000 Ry
Split based on tail norm

   izeta = 1
                 lambda =    1.000000
                     rc =    4.511437
                 energy =   -0.989254
                kinetic =    0.946651
    potential(screened) =   -1.935906
       potential(ionic) =   -5.498495

   izeta = 2
                 rmatch =    3.075858
              splitnorm =    0.150000
                 energy =   -0.701003
                kinetic =    1.771761
    potential(screened) =   -2.472764
       potential(ionic) =   -6.339278

SPLIT: Orbitals with angular momentum L= 1

SPLIT: Basis orbitals for state 2p

SPLIT: PAO cut-off radius determined from an
SPLIT: energy shift=  0.010000 Ry
Split based on tail norm

   izeta = 1
                 lambda =    1.000000
                     rc =    5.490449
                 energy =   -0.369684
                kinetic =    2.448131
    potential(screened) =   -2.817815
       potential(ionic) =   -6.235458

   izeta = 2
                 rmatch =    3.744030
              splitnorm =    0.150000
                 energy =   -0.242059
                kinetic =    3.581876
    potential(screened) =   -3.823934
       potential(ionic) =   -7.591917
*Note: V_local used for l= 2

** Using vlocal for PAOs with L= 2

POLgen: Perturbative polarization orbital with L=  2

POLgen: Polarization orbital for state 2p
*Note: V_local used for lpol= 2

** Using vlocal for PAOs with L= 2
Split based on tail norm

   izeta = 1
                     rc =    5.490449
                 energy =    1.132297
                kinetic =    2.236883
    potential(screened) =   -1.104586
       potential(ionic) =   -3.924940
atom: Total number of Sankey-type orbitals: 13

atm_pop: Valence configuration (for local Pseudopot. screening):
 2s( 2.00)                                                            
 2p( 2.00)                                                            
 3d( 0.00)                                                            
Vna: chval, zval:    4.00000   4.00000

Vna:  Cut-off radius for the neutral-atom potential:   5.490449
comcore: Pseudo-core radius Rcore=  1.671741

atom: _________________________________________________________________________

prinput: Basis input 

PAO.BasisType split     

%block ChemicalSpeciesLabel
    1    6 C                       # Species index, atomic number, species label
%endblock ChemicalSpeciesLabel

%block PAO.Basis                 # Define Basis set
# WARNING: This information might be incomplete!
C                     2                    # Species label, number of l-shells
 n=2   0   2                         # n, l, Nzeta 
   4.511      3.076   
   1.000      1.000   
 n=2   1   2 P   1                   # n, l, Nzeta, Polarization, NzetaPol
   5.490      3.744   
   1.000      1.000   
%endblock PAO.Basis

prinput: ----------------------------------------------------------------------

Dumping basis to NetCDF file C.ion.nc
coor:   Atomic-coordinates input format  =     Fractional

siesta: Atomic coordinates (Bohr) and species
siesta:      0.00765  -0.00441   0.01795  1        1
siesta:      4.02512  -2.32390   0.00000  1        2
siesta:      8.05023  -4.64780   0.00000  1        3
siesta:     12.07535  -6.97171   0.00000  1        4
siesta:      4.02512   2.32390   0.00000  1        5
siesta:      8.05023   0.00000   0.00000  1        6
siesta:     12.07535  -2.32390   0.00000  1        7
siesta:     16.10047  -4.64780   0.00000  1        8
siesta:      8.05023   4.64780   0.00000  1        9
siesta:     12.07535   2.32390   0.00000  1       10
siesta:     16.10047   0.00000   0.00000  1       11
siesta:     20.12558  -2.32390   0.00000  1       12
siesta:     12.07535   6.97171   0.00000  1       13
siesta:     16.10047   4.64780   0.00000  1       14
siesta:     20.12558   2.32390   0.00000  1       15
siesta:     24.15070   0.00000   0.00000  1       16
siesta:      2.68152   0.00000   0.00000  1       17
siesta:      6.70664  -2.32390   0.00000  1       18
siesta:     10.73175  -4.64780   0.00000  1       19
siesta:     14.75687  -6.97171   0.00000  1       20
siesta:      6.70664   2.32390   0.00000  1       21
siesta:     10.73175   0.00000   0.00000  1       22
siesta:     14.75687  -2.32390   0.00000  1       23
siesta:     18.78199  -4.64780   0.00000  1       24
siesta:     10.73175   4.64780   0.00000  1       25
siesta:     14.75687   2.32390   0.00000  1       26
siesta:     18.78199   0.00000   0.00000  1       27
siesta:     22.80710  -2.32390   0.00000  1       28
siesta:     14.75687   6.97171   0.00000  1       29
siesta:     18.78199   4.64780   0.00000  1       30
siesta:     22.80710   2.32390   0.00000  1       31
siesta:     26.83222   0.00000   0.00000  1       32

siesta: System type = slab      

initatomlists: Number of atoms, orbitals, and projectors:     32   416   256

siesta: ******************** Simulation parameters ****************************
siesta:
siesta: The following are some of the parameters of the simulation.
siesta: A complete list of the parameters used, including default values,
siesta: can be found in file out.fdf
siesta:
redata: Spin configuration                          = none
redata: Number of spin components                   = 1
redata: Time-Reversal Symmetry                      = T
redata: Spin spiral                                 = F
redata: Long output                                 =   F
redata: Number of Atomic Species                    =        1
redata: Charge density info will appear in .RHO file
redata: Write Mulliken charges (when)               = none
redata: Write Mulliken Pop.                         = NO
redata: Write Hirshfeld charges (when)              = none
redata: Write Voronoi charges (when)                = none
redata: Write spin charge (when)                    = none
redata: Matel table size (NRTAB)                    =     1024
redata: Mesh Cutoff                                 =   300.0000 Ry
redata: Net charge of the system                    =     0.0000 |e|
redata: Min. number of SCF Iter                     =        0
redata: Max. number of SCF Iter                     =     1000
redata: SCF convergence failure will abort job
redata: SCF mix quantity                            = Hamiltonian
redata: Mix DM or H after convergence               =   F
redata: Recompute H after scf cycle                 =   F
redata: Mix DM in first SCF step                    =   T
redata: Write Pulay info on disk                    =   F
redata: New DM Occupancy tolerance                  = 0.000000000001
redata: No kicks to SCF
redata: DM Mixing Weight for Kicks                  =     0.5000
redata: Require Harris convergence for SCF          =   F
redata: Harris energy tolerance for SCF             =     0.000100 eV
redata: Require DM convergence for SCF              =   T
redata: DM tolerance for SCF                        =     0.000100
redata: Require EDM convergence for SCF             =   F
redata: EDM tolerance for SCF                       =     0.001000 eV
redata: Require H convergence for SCF               =   T
redata: Hamiltonian tolerance for SCF               =     0.001000 eV
redata: Require (free) Energy convergence for SCF   =   F
redata: (free) Energy tolerance for SCF             =     0.000100 eV
redata: Using DFT-D3 dispersion                     =   F
redata: Using Saved Data (generic)                  =   F
redata: Use continuation files for DM               =   T
redata: Neglect nonoverlap interactions             =   F
redata: Method of Calculation                       = Diagonalization
redata: Electronic Temperature                      =   299.9863 K
redata: Fix the spin of the system                  =   F
redata: Max. number of TDED Iter                    =        1
redata: Number of TDED substeps                     =        3
redata: Dynamics option                             = Single-point calculation
mix.SCF: Pulay mixing                            = Pulay
mix.SCF:    Variant                              = stable
mix.SCF:    History steps                        = 2
mix.SCF:    Linear mixing weight                 =     0.250000
mix.SCF:    Mixing weight                        =     0.250000
mix.SCF:    SVD condition                        = 0.1000E-07
redata: Save all siesta data in one NC              =   F
redata: ***********************************************************************

%block SCF.Mixers
  Pulay
%endblock SCF.Mixers

%block SCF.Mixer.Pulay
  # Mixing method
  method pulay
  variant stable

  # Mixing options
  weight 0.2500
  weight.linear 0.2500
  history 2
%endblock SCF.Mixer.Pulay

DM_history_depth set to one: no extrapolation allowed by default for geometry relaxation
Size of DM history Fstack: 1
Total number of electrons:   128.000000
Total ionic charge:   128.000000

siesta: k-grid: Number of k-points = 1
siesta: k-point is Gamma-only

diag: Algorithm                                     = D&C
diag: Used triangular part                          = Lower
diag: Absolute tolerance                            =  0.100E-15
diag: Orthogonalization factor                      =  0.100E-05
diag: Memory factor                                 =  1.0000


ts: **************************************************************
ts: Save H and S matrices                           =    F
ts: Save DM and EDM matrices                        =    F
ts: Only save the overlap matrix S                  =    F
ts: **************************************************************

************************ Begin: TS CHECKS AND WARNINGS ************************
************************ End: TS CHECKS AND WARNINGS **************************


                     ====================================
                        Single-point calculation
                     ====================================

outcell: Unit cell vectors (Ang):
        8.520000   -4.919024    0.000000
        8.520000    4.919024    0.000000
        0.000000    0.000000   20.000000

outcell: Cell vector modules (Ang)   :    9.838049    9.838049   20.000000
outcell: Cell angles (23,13,12) (deg):     90.0000     90.0000     60.0000
outcell: Cell volume (Ang**3)        :   1676.4035
Gamma-point calculation with multiply-connected orbital pairs
Folding of H and S implicitly performed
<dSpData1D:S at geom step 0
  <sparsity:sparsity for geom step 0
    nrows_g=416 nrows=416 sparsity=.9379 nnzs=162304, refcount: 7>
  <dData1D:(new from dSpData1D) n=162304, refcount: 1>
refcount: 1>
new_DM -- step:     1
Initializing Density Matrix...

Attempting to read DM from file... Failed...
DM filled with atomic data:
<dSpData2D:DM initialized from atoms
  <sparsity:sparsity for geom step 0
    nrows_g=416 nrows=416 sparsity=.9379 nnzs=162304, refcount: 8>
  <dData2D:DM n=162304 m=1, refcount: 1>
refcount: 1>
No. of atoms with KB's overlaping orbs in proc 0. Max # of overlaps:      32     151

InitMesh: MESH = 90 x 90 x 216 = 1749600
InitMesh: Mesh cutoff (required, used) =   300.000   308.395 Ry
New grid distribution [1]: sub = 2

stepf: Fermi-Dirac step function

siesta: Program's energy decomposition (eV):
siesta: Ebs     =     -1576.418859
siesta: Eions   =      9029.175000
siesta: Ena     =      2412.435649
siesta: Ekin    =      3673.223987
siesta: Enl     =      -198.117779
siesta: Eso     =         0.000000
siesta: Edftu   =         0.000000
siesta: DEna    =      -224.144076
siesta: DUscf   =        17.398891
siesta: DUext   =         0.000000
siesta: Ex      =     -1643.848209
siesta: Ec      =      -222.499242
siesta: Exc     =     -1866.347451
siesta: EbV     =         0.000000
siesta: eta*DQ  =         0.000000
siesta: Emadel  =         0.000000
siesta: Emeta   =         0.000000
siesta: Emolmec =         0.000000
siesta: Ekinion =         0.000000
siesta: Eharris =     -5172.995847
siesta: Etot    =     -5214.725779
siesta: FreeEng =     -5214.725779

        iscf     Eharris(eV)        E_KS(eV)     FreeEng(eV)     dDmax    Ef(eV) dHmax(eV)
   scf:    1    -5172.995847    -5214.725779    -5214.725779  1.882911 -6.503642  3.973278
timer: Routine,Calls,Time,% = IterSCF        1       2.668  38.55
   scf:    2    -5217.926981    -5216.374357    -5216.374357  0.031729 -5.687839  2.528299
   scf:    3    -5218.564185    -5217.643659    -5217.643659  0.064721 -4.271911  0.085600
   scf:    4    -5217.643519    -5217.643592    -5217.643592  0.001064 -4.313190  0.042650
   scf:    5    -5217.646651    -5217.645153    -5217.645153  0.000986 -4.326948  0.026769
   scf:    6    -5217.647657    -5217.646536    -5217.646536  0.001781 -4.348510  0.004320
   scf:    7    -5217.646592    -5217.646566    -5217.646566  0.000203 -4.349749  0.001990
   scf:    8    -5217.646579    -5217.646575    -5217.646575  0.000130 -4.350443  0.000606
   scf:    9    -5217.646575    -5217.646575    -5217.646575  0.000005 -4.350386  0.000490

SCF Convergence by DM+H criterion
max |DM_out - DM_in|         :     0.0000050282
max |H_out - H_in|      (eV) :     0.0004898055
SCF cycle converged after 9 iterations

Using DM_out to compute the final energy and forces
No. of atoms with KB's overlaping orbs in proc 0. Max # of overlaps:      32     151

siesta: E_KS(eV) =            -5217.6466

siesta: E_KS - E_eggbox =     -5217.6466

siesta: Atomic forces (eV/Ang):
----------------------------------------
   Tot    0.001533   -0.000422    0.000191
----------------------------------------
   Max    0.356285
   Res    0.063757    sqrt( Sum f_i^2 / 3N )
----------------------------------------
   Max    0.356285    constrained

Stress tensor Voigt[x,y,z,yz,xz,xy] (kbar):      -23.74      -22.89        0.03       -0.00        0.00       -0.05
(Free)E + p*V (eV/cell)    -5201.3945
Target enthalpy (eV/cell)    -5217.6466

siesta: Program's energy decomposition (eV):
siesta: Ebs     =     -1726.002284
siesta: Eions   =      9029.175000
siesta: Ena     =      2412.435649
siesta: Ekin    =      3564.849142
siesta: Enl     =      -178.326325
siesta: Eso     =         0.000000
siesta: Edftu   =         0.000000
siesta: DEna    =      -151.393498
siesta: DUscf   =        10.516205
siesta: DUext   =         0.000000
siesta: Ex      =     -1625.079823
siesta: Ec      =      -221.472924
siesta: Exc     =     -1846.552748
siesta: EbV     =         0.000000
siesta: eta*DQ  =         0.000000
siesta: Emadel  =         0.000000
siesta: Emeta   =         0.000000
siesta: Emolmec =         0.000000
siesta: Ekinion =         0.000000
siesta: Eharris =     -5217.646575
siesta: Etot    =     -5217.646575
siesta: FreeEng =     -5217.646575

siesta: Final energy (eV):
siesta:  Band Struct. =   -1726.002284
siesta:       Kinetic =    3564.849142
siesta:       Hartree =   24793.409479
siesta:         Edftu =       0.000000
siesta:       Eso     =       0.000000
siesta:    Ext. field =       0.000000
siesta:         Exch. =   -1625.079823
siesta:         Corr. =    -221.472924
siesta:     Bulk bias =       0.000000
siesta:   Exch.-corr. =   -1846.552748
siesta:  Ion-electron =  -52840.105370
siesta:       Ion-ion =   21110.752922
siesta:       Ekinion =       0.000000
siesta: D3 dispersion =       0.000000
siesta:         Total =   -5217.646575
siesta:         Fermi =      -4.350386

siesta: Atomic forces (eV/Ang):
siesta:      1   -0.356285    0.163565   -0.121883
siesta:      2   -0.051079   -0.012370   -0.004358
siesta:      3   -0.065845   -0.000545    0.000552
siesta:      4   -0.050097   -0.010207   -0.004152
siesta:      5   -0.064616    0.018013   -0.004264
siesta:      6   -0.063448    0.000055    0.000453
siesta:      7   -0.066901   -0.000011    0.000465
siesta:      8   -0.077994   -0.010803   -0.004277
siesta:      9   -0.067005    0.001449    0.000546
siesta:     10   -0.067765   -0.001394    0.000462
siesta:     11   -0.068178   -0.000551    0.000558
siesta:     12   -0.067772   -0.001400    0.000462
siesta:     13   -0.065824    0.015901   -0.004160
siesta:     14   -0.076863   -0.008852   -0.004380
siesta:     15   -0.066889    0.000002    0.000468
siesta:     16   -0.063446    0.000059    0.000451
siesta:     17    0.198965   -0.024129    0.052295
siesta:     18    0.065873   -0.003678   -0.005046
siesta:     19    0.066272    0.002836   -0.005074
siesta:     20    0.154111   -0.101732    0.054220
siesta:     21    0.064862    0.000792   -0.005039
siesta:     22    0.064756    0.001003    0.002542
siesta:     23    0.066856    0.004173   -0.005060
siesta:     24    0.076047   -0.005508    0.003763
siesta:     25    0.068247   -0.000580   -0.005065
siesta:     26    0.069800   -0.003674   -0.005058
siesta:     27    0.066202    0.000435   -0.000080
siesta:     28    0.067911   -0.002389   -0.000078
siesta:     29    0.110518   -0.022114    0.053456
siesta:     30    0.070085    0.004904    0.003760
siesta:     31    0.067062    0.001796   -0.000082
siesta:     32    0.063974   -0.005468    0.003798
siesta: ----------------------------------------
siesta:    Tot    0.001533   -0.000422    0.000191

siesta: Stress tensor (static) (eV/Ang**3):
siesta:    -0.014815   -0.000030    0.000002
siesta:    -0.000030   -0.014286   -0.000001
siesta:     0.000002   -0.000001    0.000018

siesta: Cell volume =       1676.403508 Ang**3

siesta: Pressure (static):
siesta:                Solid            Molecule  Units
siesta:           0.00010559          0.00009850  Ry/Bohr**3
siesta:           0.00969462          0.00904408  eV/Ang**3
siesta:          15.53249409         14.49021738  kBar
(Free)E+ p_basis*V_orbitals  =       -5205.139444
(Free)Eharris+ p_basis*V_orbitals  =       -5205.139444

siesta: Electric dipole (a.u.)  =   -0.000000    0.000000   -0.000000
siesta: Electric dipole (Debye) =   -0.000000    0.000000   -0.000001

cite: Please see "siesta.bib" for an exhaustive BiBTeX file.
cite: Please clearly indicate Siesta version in published work: 5.2.1
cite: This calculation has made use of the following articles
cite: which are encouraged to be cited in a published work.
        Primary SIESTA paper
          DOI: www.doi.org/10.1088/0953-8984/14/11/302


timer: Elapsed wall time (sec) =      21.852
timer: CPU execution times (sec):

Routine            Calls   Time/call    Tot.time        %
siesta                 1      32.836      32.836   100.00
Setup                  1       1.023       1.023     3.12
bands                  1       0.000       0.000     0.00
KSV_init               1       0.000       0.000     0.00
IterGeom               1      31.806      31.806    96.87
geom_init              1       3.229       3.229     9.83
state_init             1       0.108       0.108     0.33
hsparse                1       0.009       0.009     0.03
overlap                1       0.093       0.093     0.28
Setup_H0               1       1.645       1.645     5.01
naefs                  2       0.000       0.000     0.00
dnaefs                 2       0.000       0.000     0.00
MolMec                 2       0.000       0.000     0.00
kinefsm                2       0.062       0.123     0.38
nlefsm                 2       0.076       0.151     0.46
DHSCF_Init             1       1.465       1.465     4.46
DHSCF1                 1       0.018       0.018     0.05
InitMesh               1       0.018       0.018     0.05
INITMESH               1       0.000       0.000     0.00
DHSCF2                 1       1.447       1.447     4.41
REMESH                 1       0.076       0.076     0.23
REORD                 37       0.002       0.073     0.22
PHION                  1       1.169       1.169     3.56
COMM_BSC              47       0.002       0.071     0.22
POISON                12       0.062       0.749     2.28
fft                   24       0.022       0.522     1.59
setup_H               10       2.105      21.051    64.11
DHSCF                 11       2.305      25.353    77.21
DHSCF3                11       2.041      22.454    68.38
rhoofd                11       1.282      14.104    42.95
XC                    11       0.046       0.504     1.53
GXC-CellXC            11       0.040       0.439     1.34
gridxc@cellXC         11       0.040       0.439     1.34
vmat                  11       0.570       6.270    19.10
IterSCF                9       2.673      24.053    73.25
compute_dm             9       0.494       4.446    13.54
diagon                 9       0.490       4.413    13.44
r-eigvec               9       0.146       1.312     4.00
r-buildHS              9       0.000       0.004     0.01
rdiag                  9       0.145       1.308     3.98
rdiag1                 9       0.006       0.055     0.17
rdiag2                 9       0.015       0.139     0.42
rdiag3                 9       0.119       1.070     3.26
rdiag4                 9       0.005       0.041     0.12
r-buildD               9       0.342       3.076     9.37
MIXER                  8       0.001       0.007     0.02
PostSCF                1       4.523       4.523    13.78
FINAL_HF               1       4.523       4.523    13.78
DHSCF4                 1       2.899       2.899     8.83
dfscf                  1       2.743       2.743     8.35
overfsm                1       0.035       0.035     0.11
writeHSX               1       0.001       0.001     0.00
state_analysis         1       0.000       0.000     0.00
siesta_move            1       0.000       0.000     0.00
Analysis               1       0.001       0.001     0.00
optical                1       0.000       0.000     0.00
  

>> End of run:  17-JUN-2025  17:03:14
Job completed
