calculator: siesta
length_unit: au
nqpoint: 303    
npath: 3      
segment_nqpoint:
- 101
- 101
- 101
labels:
- [ 'G', 'K' ]
- [ 'K', 'M' ]
- [ 'M', '$\Gamma$' ]
reciprocal_lattice:
- [   0.12422000,  -0.21515535,   0.00000000 ] # a*
- [   0.12422000,   0.21515535,   0.00000000 ] # b*
- [   0.00000000,   0.00000000,   0.02645886 ] # c*
natom: 2      
lattice:
- [     4.025116671915840,    -2.323902187674509,     0.000000000000000 ] # a
- [     4.025116671915840,     2.323902187674509,     0.000000000000000 ] # b
- [     0.000000000000000,     0.000000000000000,    37.794522740993806 ] # c
points:
- symbol: C # 1
  coordinates: [  0.000000000000000,  0.000000000000000,  0.000000000000000 ]
  mass: 12.010700
- symbol: C # 2
  coordinates: [  0.333098591549296,  0.333098591549296,  0.000000000000000 ]
  mass: 12.010700

phonon:
- q-position: [    0.0000000,    0.0000000,    0.0000000 ]
  distance:    0.0000000
  band:
  - # 1
    frequency:   -0.0010493866
  - # 2
    frequency:    0.0003359343
  - # 3
    frequency:    0.0022552779
  - # 4
    frequency:   24.5223130043
  - # 5
    frequency:   52.1000864778
  - # 6
    frequency:   52.2816668830

- q-position: [    0.0066667,    0.0033333,    0.0000000 ]
  distance:    0.0014344
  band:
  - # 1
    frequency:   -0.0539651152
  - # 2
    frequency:    0.3575070470
  - # 3
    frequency:    0.6145040509
  - # 4
    frequency:   24.5216551024
  - # 5
    frequency:   52.0959401478
  - # 6
    frequency:   52.2797714333

- q-position: [    0.0133333,    0.0066667,    0.0000000 ]
  distance:    0.0028687
  band:
  - # 1
    frequency:   -0.1076390028
  - # 2
    frequency:    0.7151132036
  - # 3
    frequency:    1.2287175175
  - # 4
    frequency:   24.5196818231
  - # 5
    frequency:   52.0833255465
  - # 6
    frequency:   52.2742894636

- q-position: [    0.0200000,    0.0100000,    0.0000000 ]
  distance:    0.0043031
  band:
  - # 1
    frequency:   -0.1607241667
  - # 2
    frequency:    1.0729186517
  - # 3
    frequency:    1.8423594603
  - # 4
    frequency:   24.5163944252
  - # 5
    frequency:   52.0617922625
  - # 6
    frequency:   52.2657574922

- q-position: [    0.0266667,    0.0133333,    0.0000000 ]
  distance:    0.0057375
  band:
  - # 1
    frequency:   -0.2129196086
  - # 2
    frequency:    1.4310179698
  - # 3
    frequency:    2.4551443888
  - # 4
    frequency:   24.5117949413
  - # 5
    frequency:   52.0308105811
  - # 6
    frequency:   52.2548480847

- q-position: [    0.0333333,    0.0166667,    0.0000000 ]
  distance:    0.0071718
  band:
  - # 1
    frequency:   -0.2639153293
  - # 2
    frequency:    1.7895003714
  - # 3
    frequency:    3.0667890511
  - # 4
    frequency:   24.5058860790
  - # 5
    frequency:   51.9899882205
  - # 6
    frequency:   52.2421521282

- q-position: [    0.0400000,    0.0200000,    0.0000000 ]
  distance:    0.0086062
  band:
  - # 1
    frequency:   -0.3133890336
  - # 2
    frequency:    2.1484478625
  - # 3
    frequency:    3.6770125536
  - # 4
    frequency:   24.4986710851
  - # 5
    frequency:   51.9391974678
  - # 6
    frequency:   52.2280503107

- q-position: [    0.0466667,    0.0233333,    0.0000000 ]
  distance:    0.0100406
  band:
  - # 1
    frequency:   -0.3610021647
  - # 2
    frequency:    2.5079336524
  - # 3
    frequency:    4.2855368771
  - # 4
    frequency:   24.4901535735
  - # 5
    frequency:   51.8785777204
  - # 6
    frequency:   52.2127088014

- q-position: [    0.0533333,    0.0266667,    0.0000000 ]
  distance:    0.0114750
  band:
  - # 1
    frequency:   -0.4063951811
  - # 2
    frequency:    2.8680207350
  - # 3
    frequency:    4.8920874506
  - # 4
    frequency:   24.4803373186
  - # 5
    frequency:   51.8084655183
  - # 6
    frequency:   52.1961470478

- q-position: [    0.0600000,    0.0300000,    0.0000000 ]
  distance:    0.0129093
  band:
  - # 1
    frequency:   -0.4491817945
  - # 2
    frequency:    3.2287606494
  - # 3
    frequency:    5.4963937451
  - # 4
    frequency:   24.4692260161
  - # 5
    frequency:   51.7293180936
  - # 6
    frequency:   52.1783116686

- q-position: [    0.0666667,    0.0333333,    0.0000000 ]
  distance:    0.0143437
  band:
  - # 1
    frequency:   -0.4889417570
  - # 2
    frequency:    3.5901924383
  - # 3
    frequency:    6.0981898816
  - # 4
    frequency:   24.4568230153
  - # 5
    frequency:   51.6416608011
  - # 6
    frequency:   52.1591260801

- q-position: [    0.0733333,    0.0366667,    0.0000000 ]
  distance:    0.0157781
  band:
  - # 1
    frequency:   -0.5252115886
  - # 2
    frequency:    3.9523418182
  - # 3
    frequency:    6.6972152489
  - # 4
    frequency:   24.4431310244
  - # 5
    frequency:   51.5460588777
  - # 6
    frequency:   52.1385154159

- q-position: [    0.0800000,    0.0400000,    0.0000000 ]
  distance:    0.0172124
  band:
  - # 1
    frequency:   -0.5574723353
  - # 2
    frequency:    4.3152205721
  - # 3
    frequency:    7.2932151326
  - # 4
    frequency:   24.4281517939
  - # 5
    frequency:   51.4431044735
  - # 6
    frequency:   52.1164158058

- q-position: [    0.0866667,    0.0433333,    0.0000000 ]
  distance:    0.0186468
  band:
  - # 1
    frequency:   -0.5851329342
  - # 2
    frequency:    4.6788261716
  - # 3
    frequency:    7.8859413511
  - # 4
    frequency:   24.4118857798
  - # 5
    frequency:   51.3334110921
  - # 6
    frequency:   52.0927758865

- q-position: [    0.0933333,    0.0466667,    0.0000000 ]
  distance:    0.0200812
  band:
  - # 1
    frequency:   -0.6075068872
  - # 2
    frequency:    5.0431416301
  - # 3
    frequency:    8.4751528973
  - # 4
    frequency:   24.3943317941
  - # 5
    frequency:   51.2176108421
  - # 6
    frequency:   52.0675551558

- q-position: [    0.1000000,    0.0500000,    0.0000000 ]
  distance:    0.0215155
  band:
  - # 1
    frequency:   -0.6237783668
  - # 2
    frequency:    5.4081355833
  - # 3
    frequency:    9.0606165830
  - # 4
    frequency:   24.3754866433
  - # 5
    frequency:   51.0963522950
  - # 6
    frequency:   52.0407213945

- q-position: [    0.1066667,    0.0533333,    0.0000000 ]
  distance:    0.0229499
  band:
  - # 1
    frequency:   -0.6329508683
  - # 2
    frequency:    5.7737625910
  - # 3
    frequency:    9.6421076804
  - # 4
    frequency:   24.3553447630
  - # 5
    frequency:   50.9702980496
  - # 6
    frequency:   52.0122480767

- q-position: [    0.1133333,    0.0566667,    0.0000000 ]
  distance:    0.0243843
  band:
  - # 1
    frequency:   -0.6337654199
  - # 2
    frequency:    6.1399636477
  - # 3
    frequency:   10.2194105567
  - # 4
    frequency:   24.3338978519
  - # 5
    frequency:   50.8401217174
  - # 6
    frequency:   51.9821120811

- q-position: [    0.1200000,    0.0600000,    0.0000000 ]
  distance:    0.0258186
  band:
  - # 1
    frequency:   -0.6245619096
  - # 2
    frequency:    6.5066668865
  - # 3
    frequency:   10.7923192948
  - # 4
    frequency:   24.3111345108
  - # 5
    frequency:   50.7065043026
  - # 6
    frequency:   51.9502917628

- q-position: [    0.1266667,    0.0633333,    0.0000000 ]
  distance:    0.0272530
  band:
  - # 1
    frequency:   -0.6030241869
  - # 2
    frequency:    6.8737884564
  - # 3
    frequency:   11.3606382926
  - # 4
    frequency:   24.2870398921
  - # 5
    frequency:   50.5701300486
  - # 6
    frequency:   51.9167653493

- q-position: [    0.1333333,    0.0666667,    0.0000000 ]
  distance:    0.0286874
  band:
  - # 1
    frequency:   -0.5656571433
  - # 2
    frequency:    7.2412335514
  - # 3
    frequency:   11.9241828323
  - # 4
    frequency:   24.2615953656
  - # 5
    frequency:   50.4316818508
  - # 6
    frequency:   51.8815096080

- q-position: [    0.1400000,    0.0700000,    0.0000000 ]
  distance:    0.0301217
  band:
  - # 1
    frequency:   -0.5065272287
  - # 2
    frequency:    7.6088975642
  - # 3
    frequency:   12.4827796102
  - # 4
    frequency:   24.2347782052
  - # 5
    frequency:   50.2918363404
  - # 6
    frequency:   51.8444987280

- q-position: [    0.1466667,    0.0733333,    0.0000000 ]
  distance:    0.0315561
  band:
  - # 1
    frequency:   -0.4133087419
  - # 2
    frequency:    7.9766673373
  - # 3
    frequency:   13.0362672172
  - # 4
    frequency:   24.2065613027
  - # 5
    frequency:   50.1512587382
  - # 6
    frequency:   51.8057033742

- q-position: [    0.1533333,    0.0766667,    0.0000000 ]
  distance:    0.0329905
  band:
  - # 1
    frequency:   -0.2449332156
  - # 2
    frequency:    8.3444224829
  - # 3
    frequency:   13.5844965575
  - # 4
    frequency:   24.1769129135
  - # 5
    frequency:   50.0105975743
  - # 6
    frequency:   51.7650898805

- q-position: [    0.1600000,    0.0800000,    0.0000000 ]
  distance:    0.0344249
  band:
  - # 1
    frequency:    0.2806763931
  - # 2
    frequency:    8.7120367387
  - # 3
    frequency:   14.1273311961
  - # 4
    frequency:   24.1457964393
  - # 5
    frequency:   49.8704793636
  - # 6
    frequency:   51.7226195601

- q-position: [    0.1666667,    0.0833333,    0.0000000 ]
  distance:    0.0358592
  band:
  - # 1
    frequency:    0.4984517134
  - # 2
    frequency:    9.0793793309
  - # 3
    frequency:   14.6646476222
  - # 4
    frequency:   24.1131702524
  - # 5
    frequency:   49.7315033267
  - # 6
    frequency:   51.6782481160

- q-position: [    0.1733333,    0.0866667,    0.0000000 ]
  distance:    0.0372936
  band:
  - # 1
    frequency:    0.6723840653
  - # 2
    frequency:    9.4463163128
  - # 3
    frequency:   15.1963354174
  - # 4
    frequency:   24.0789875663
  - # 5
    frequency:   49.5942362406
  - # 6
    frequency:   51.6319251431

- q-position: [    0.1800000,    0.0900000,    0.0000000 ]
  distance:    0.0387280
  band:
  - # 1
    frequency:    0.8323962104
  - # 2
    frequency:    9.8127118500
  - # 3
    frequency:   15.7222973191
  - # 4
    frequency:   24.0431963552
  - # 5
    frequency:   49.4592075068
  - # 6
    frequency:   51.5835937149

- q-position: [    0.1866667,    0.0933333,    0.0000000 ]
  distance:    0.0401623
  band:
  - # 1
    frequency:    0.9869441743
  - # 2
    frequency:   10.1784294271
  - # 3
    frequency:   16.2424491691
  - # 4
    frequency:   24.0057393278
  - # 5
    frequency:   49.3269045187
  - # 6
    frequency:   51.5331900535

- q-position: [    0.1933333,    0.0966667,    0.0000000 ]
  distance:    0.0415967
  band:
  - # 1
    frequency:    1.1397204353
  - # 2
    frequency:   10.5433329485
  - # 3
    frequency:   16.7567197393
  - # 4
    frequency:   23.9665539563
  - # 5
    frequency:   49.1977684083
  - # 6
    frequency:   51.4806432797

- q-position: [    0.2000000,    0.1000000,    0.0000000 ]
  distance:    0.0430311
  band:
  - # 1
    frequency:    1.2926725726
  - # 2
    frequency:   10.9072877176
  - # 3
    frequency:   17.2650504296
  - # 4
    frequency:   23.9255725628
  - # 5
    frequency:   49.0721902516
  - # 6
    frequency:   51.4258752451

- q-position: [    0.2066667,    0.1033333,    0.0000000 ]
  distance:    0.0444654
  band:
  - # 1
    frequency:    1.4469434369
  - # 2
    frequency:   11.2701612759
  - # 3
    frequency:   17.7673948338
  - # 4
    frequency:   23.8827224663
  - # 5
    frequency:   48.9505078011
  - # 6
    frequency:   51.3688004463

- q-position: [    0.2133333,    0.1066667,    0.0000000 ]
  distance:    0.0458998
  band:
  - # 1
    frequency:    1.6032488340
  - # 2
    frequency:   11.6318240928
  - # 3
    frequency:   18.2637181733
  - # 4
    frequency:   23.8379261887
  - # 5
    frequency:   48.8330028112
  - # 6
    frequency:   51.3093260212

- q-position: [    0.2200000,    0.1100000,    0.0000000 ]
  distance:    0.0473342
  band:
  - # 1
    frequency:    1.7620548108
  - # 2
    frequency:   11.9921501021
  - # 3
    frequency:   18.7539966010
  - # 4
    frequency:   23.7911017210
  - # 5
    frequency:   48.7198990110
  - # 6
    frequency:   51.2473518309

- q-position: [    0.2266667,    0.1133333,    0.0000000 ]
  distance:    0.0487685
  band:
  - # 1
    frequency:    1.9236702647
  - # 2
    frequency:   12.3510170855
  - # 3
    frequency:   19.2382163801
  - # 4
    frequency:   23.7421628498
  - # 5
    frequency:   48.6113607674
  - # 6
    frequency:   51.1827706249

- q-position: [    0.2333333,    0.1166667,    0.0000000 ]
  distance:    0.0502029
  band:
  - # 1
    frequency:    2.0882992763
  - # 2
    frequency:   12.7083069106
  - # 3
    frequency:   19.7163729468
  - # 4
    frequency:   23.6910195406
  - # 5
    frequency:   48.5074924726
  - # 6
    frequency:   51.1154682918

- q-position: [    0.2400000,    0.1200000,    0.0000000 ]
  distance:    0.0516373
  band:
  - # 1
    frequency:    2.2560725329
  - # 2
    frequency:   13.0639056370
  - # 3
    frequency:   20.1884698690
  - # 4
    frequency:   23.6375783778
  - # 5
    frequency:   48.4083386717
  - # 6
    frequency:   51.0453241952

- q-position: [    0.2466667,    0.1233333,    0.0000000 ]
  distance:    0.0530717
  band:
  - # 1
    frequency:    2.4270671350
  - # 2
    frequency:   13.4177035077
  - # 3
    frequency:   20.6545177142
  - # 4
    frequency:   23.5817430579
  - # 5
    frequency:   48.3138849349
  - # 6
    frequency:   50.9722115921

- q-position: [    0.2533333,    0.1266667,    0.0000000 ]
  distance:    0.0545060
  band:
  - # 1
    frequency:    2.6013195956
  - # 2
    frequency:   13.7695948479
  - # 3
    frequency:   21.1145328438
  - # 4
    frequency:   23.5234149327
  - # 5
    frequency:   48.2240594645
  - # 6
    frequency:   50.8959981338

- q-position: [    0.2600000,    0.1300000,    0.0000000 ]
  distance:    0.0559404
  band:
  - # 1
    frequency:    2.7788346722
  - # 2
    frequency:   14.1194778987
  - # 3
    frequency:   21.5685361527
  - # 4
    frequency:   23.4624935986
  - # 5
    frequency:   48.1387354094
  - # 6
    frequency:   50.8165464461

- q-position: [    0.2666667,    0.1333333,    0.0000000 ]
  distance:    0.0573748
  band:
  - # 1
    frequency:    2.9595915546
  - # 2
    frequency:   14.4672546114
  - # 3
    frequency:   22.0165517739
  - # 4
    frequency:   23.3988775284
  - # 5
    frequency:   48.0577338488
  - # 6
    frequency:   50.7337147851

- q-position: [    0.2733333,    0.1366667,    0.0000000 ]
  distance:    0.0588091
  band:
  - # 1
    frequency:    3.1435483254
  - # 2
    frequency:   14.8128304330
  - # 3
    frequency:   22.4586057699
  - # 4
    frequency:   23.3324647395
  - # 5
    frequency:   47.9808273939
  - # 6
    frequency:   50.6473577659

- q-position: [    0.2800000,    0.1400000,    0.0000000 ]
  distance:    0.0602435
  band:
  - # 1
    frequency:    3.3306452638
  - # 2
    frequency:   15.1561141087
  - # 3
    frequency:   22.8947248309
  - # 4
    frequency:   23.2631534960
  - # 5
    frequency:   47.9077443432
  - # 6
    frequency:   50.5573271578

- q-position: [    0.2866667,    0.1433333,    0.0000000 ]
  distance:    0.0616779
  band:
  - # 1
    frequency:    3.5208073579
  - # 2
    frequency:   15.4970175299
  - # 3
    frequency:   23.1908430367
  - # 4
    frequency:   23.3249350023
  - # 5
    frequency:   47.8381733206
  - # 6
    frequency:   50.4634727420

- q-position: [    0.2933333,    0.1466667,    0.0000000 ]
  distance:    0.0631122
  band:
  - # 1
    frequency:    3.7139462668
  - # 2
    frequency:   15.8354556470
  - # 3
    frequency:   23.1154343259
  - # 4
    frequency:   23.7492604615
  - # 5
    frequency:   47.7717683179
  - # 6
    frequency:   50.3656432255

- q-position: [    0.3000000,    0.1500000,    0.0000000 ]
  distance:    0.0645466
  band:
  - # 1
    frequency:    3.9099618937
  - # 2
    frequency:   16.1713464668
  - # 3
    frequency:   23.0368308200
  - # 4
    frequency:   24.1677223636
  - # 5
    frequency:   47.7081540573
  - # 6
    frequency:   50.2636872047

- q-position: [    0.3066667,    0.1533333,    0.0000000 ]
  distance:    0.0659810
  band:
  - # 1
    frequency:    4.1087436821
  - # 2
    frequency:   16.5046111454
  - # 3
    frequency:   22.9549392455
  - # 4
    frequency:   24.5803377734
  - # 5
    frequency:   47.6469315896
  - # 6
    frequency:   50.1574541720

- q-position: [    0.3133333,    0.1566667,    0.0000000 ]
  distance:    0.0674153
  band:
  - # 1
    frequency:    4.3101717099
  - # 2
    frequency:   16.8351741810
  - # 3
    frequency:   22.8696703819
  - # 4
    frequency:   24.9871187010
  - # 5
    frequency:   47.5876840419
  - # 6
    frequency:   50.0467955598

- q-position: [    0.3200000,    0.1600000,    0.0000000 ]
  distance:    0.0688497
  band:
  - # 1
    frequency:    4.5141176374
  - # 2
    frequency:   17.1629637086
  - # 3
    frequency:   22.7809398457
  - # 4
    frequency:   25.3880712556
  - # 5
    frequency:   47.5299824302
  - # 6
    frequency:   49.9315658131

- q-position: [    0.3266667,    0.1633333,    0.0000000 ]
  distance:    0.0702841
  band:
  - # 1
    frequency:    4.7204455471
  - # 2
    frequency:   17.4879118843
  - # 3
    frequency:   22.6886688679
  - # 4
    frequency:   25.7831949299
  - # 5
    frequency:   47.4733914574
  - # 6
    frequency:   49.8116234874

- q-position: [    0.3333333,    0.1666667,    0.0000000 ]
  distance:    0.0717185
  band:
  - # 1
    frequency:    4.9290127024
  - # 2
    frequency:   17.8099553488
  - # 3
    frequency:   22.5927850622
  - # 4
    frequency:   26.1724820266
  - # 5
    frequency:   47.4174752189
  - # 6
    frequency:   49.6868323646

- q-position: [    0.3400000,    0.1700000,    0.0000000 ]
  distance:    0.0731528
  band:
  - # 1
    frequency:    5.1396702455
  - # 2
    frequency:   18.1290357478
  - # 3
    frequency:   22.4932231779
  - # 4
    frequency:   26.5559172364
  - # 5
    frequency:   47.3618027445
  - # 6
    frequency:   49.5570625839

- q-position: [    0.3466667,    0.1733333,    0.0000000 ]
  distance:    0.0745872
  band:
  - # 1
    frequency:    5.3522638490
  - # 2
    frequency:   18.4451002857
  - # 3
    frequency:   22.3899258327
  - # 4
    frequency:   26.9334773751
  - # 5
    frequency:   47.3059533085
  - # 6
    frequency:   49.4221917868

- q-position: [    0.3533333,    0.1766667,    0.0000000 ]
  distance:    0.0760216
  band:
  - # 1
    frequency:    5.5666343309
  - # 2
    frequency:   18.7581022826
  - # 3
    frequency:   22.2828442221
  - # 4
    frequency:   27.3051312866
  - # 5
    frequency:   47.2495214455
  - # 6
    frequency:   49.2821062798

- q-position: [    0.3600000,    0.1800000,    0.0000000 ]
  distance:    0.0774559
  band:
  - # 1
    frequency:    5.7826182404
  - # 2
    frequency:   19.0680017055
  - # 3
    frequency:   22.1719388000
  - # 4
    frequency:   27.6708399160
  - # 5
    frequency:   47.1921216077
  - # 6
    frequency:   49.1367022215

- q-position: [    0.3666667,    0.1833333,    0.0000000 ]
  distance:    0.0788903
  band:
  - # 1
    frequency:    6.0000484210
  - # 2
    frequency:   19.3747656399
  - # 3
    frequency:   22.0571799279
  - # 4
    frequency:   28.0305565555
  - # 5
    frequency:   47.1333924002
  - # 6
    frequency:   48.9858868549

- q-position: [    0.3733333,    0.1866667,    0.0000000 ]
  distance:    0.0803247
  band:
  - # 1
    frequency:    6.2187545524
  - # 2
    frequency:   19.6783686708
  - # 3
    frequency:   21.9385484880
  - # 4
    frequency:   28.3842272678
  - # 5
    frequency:   47.0730003215
  - # 6
    frequency:   48.8295798176

- q-position: [    0.3800000,    0.1900000,    0.0000000 ]
  distance:    0.0817590
  band:
  - # 1
    frequency:    6.4385636770
  - # 2
    frequency:   19.9787931417
  - # 3
    frequency:   21.8160364581
  - # 4
    frequency:   28.7317914842
  - # 5
    frequency:   47.0106429178
  - # 6
    frequency:   48.6677145877

- q-position: [    0.3866667,    0.1933333,    0.0000000 ]
  distance:    0.0831934
  band:
  - # 1
    frequency:    6.6593007089
  - # 2
    frequency:   20.2760292643
  - # 3
    frequency:   21.6896474444
  - # 4
    frequency:   29.0731827799
  - # 5
    frequency:   46.9460512226
  - # 6
    frequency:   48.5002401673

- q-position: [    0.3933333,    0.1966667,    0.0000000 ]
  distance:    0.0846278
  band:
  - # 1
    frequency:    6.8807889308
  - # 2
    frequency:   20.5700750542
  - # 3
    frequency:   21.5593971701
  - # 4
    frequency:   29.4083298234
  - # 5
    frequency:   46.8789912883
  - # 6
    frequency:   48.3271231771

- q-position: [    0.4000000,    0.2000000,    0.0000000 ]
  distance:    0.0860621
  band:
  - # 1
    frequency:    7.1028504759
  - # 2
    frequency:   20.8609360718
  - # 3
    frequency:   21.4253139164
  - # 4
    frequency:   29.7371574977
  - # 5
    frequency:   46.8092644823
  - # 6
    frequency:   48.1483506689

- q-position: [    0.4066667,    0.2033333,    0.0000000 ]
  distance:    0.0874965
  band:
  - # 1
    frequency:    7.3253067979
  - # 2
    frequency:   21.1486249539
  - # 3
    frequency:   21.2874389150
  - # 4
    frequency:   30.0595881876
  - # 5
    frequency:   46.7367059730
  - # 6
    frequency:   47.9639342208

- q-position: [    0.4133333,    0.2066667,    0.0000000 ]
  distance:    0.0889309
  band:
  - # 1
    frequency:    7.5479791282
  - # 2
    frequency:   21.1458266883
  - # 3
    frequency:   21.4331607260
  - # 4
    frequency:   30.3755432304
  - # 5
    frequency:   46.6611803190
  - # 6
    frequency:   47.7739163892

- q-position: [    0.4200000,    0.2100000,    0.0000000 ]
  distance:    0.0903652
  band:
  - # 1
    frequency:    7.7706889199
  - # 2
    frequency:   21.0005453365
  - # 3
    frequency:   21.7145678893
  - # 4
    frequency:   30.6849445195
  - # 5
    frequency:   46.5825719851
  - # 6
    frequency:   47.5783816892

- q-position: [    0.4266667,    0.2133333,    0.0000000 ]
  distance:    0.0917996
  band:
  - # 1
    frequency:    7.9932582807
  - # 2
    frequency:   20.8516767693
  - # 3
    frequency:   21.9928752847
  - # 4
    frequency:   30.9877162559
  - # 5
    frequency:   46.5007661021
  - # 6
    frequency:   47.3774767819

- q-position: [    0.4333333,    0.2166667,    0.0000000 ]
  distance:    0.0932340
  band:
  - # 1
    frequency:    8.2155103918
  - # 2
    frequency:   20.6993168803
  - # 3
    frequency:   22.2681147370
  - # 4
    frequency:   31.2837868341
  - # 5
    frequency:   46.4156085546
  - # 6
    frequency:   47.1714507826

- q-position: [    0.4400000,    0.2200000,    0.0000000 ]
  distance:    0.0946684
  band:
  - # 1
    frequency:    8.4372699150
  - # 2
    frequency:   20.5435756633
  - # 3
    frequency:   22.5403194911
  - # 4
    frequency:   31.5730908532
  - # 5
    frequency:   46.3268173867
  - # 6
    frequency:   46.9607437050

- q-position: [    0.4466667,    0.2233333,    0.0000000 ]
  distance:    0.0961027
  band:
  - # 1
    frequency:    8.6583633870
  - # 2
    frequency:   20.3845772675
  - # 3
    frequency:   22.8095224520
  - # 4
    frequency:   31.8555712369
  - # 5
    frequency:   46.2337649861
  - # 6
    frequency:   46.7462035841

- q-position: [    0.4533333,    0.2266667,    0.0000000 ]
  distance:    0.0975371
  band:
  - # 1
    frequency:    8.8786195999
  - # 2
    frequency:   20.2224599912
  - # 3
    frequency:   23.0757542450
  - # 4
    frequency:   32.1311814466
  - # 5
    frequency:   46.1348686064
  - # 6
    frequency:   46.5296947322

- q-position: [    0.4600000,    0.2300000,    0.0000000 ]
  distance:    0.0989715
  band:
  - # 1
    frequency:    9.0978699698
  - # 2
    frequency:   20.0573762118
  - # 3
    frequency:   23.3390411156
  - # 4
    frequency:   32.3998877655
  - # 5
    frequency:   46.0256637318
  - # 6
    frequency:   46.3160226370

- q-position: [    0.4666667,    0.2333333,    0.0000000 ]
  distance:    0.1004058
  band:
  - # 1
    frequency:    9.3159488905
  - # 2
    frequency:   19.8894922512
  - # 3
    frequency:   23.5994026861
  - # 4
    frequency:   32.6616716326
  - # 5
    frequency:   45.8933687103
  - # 6
    frequency:   46.1183671024

- q-position: [    0.4733333,    0.2366667,    0.0000000 ]
  distance:    0.1018402
  band:
  - # 1
    frequency:    9.5326940746
  - # 2
    frequency:   19.7189881747
  - # 3
    frequency:   23.8568495891
  - # 4
    frequency:   32.9165319942
  - # 5
    frequency:   45.7173218452
  - # 6
    frequency:   45.9578424709

- q-position: [    0.4800000,    0.2400000,    0.0000000 ]
  distance:    0.1032746
  band:
  - # 1
    frequency:    9.7479468797
  - # 2
    frequency:   19.5460575213
  - # 3
    frequency:   24.1113809953
  - # 4
    frequency:   33.1644876411
  - # 5
    frequency:   45.5009497250
  - # 6
    frequency:   45.8315261932

- q-position: [    0.4866667,    0.2433333,    0.0000000 ]
  distance:    0.1047089
  band:
  - # 1
    frequency:    9.9615526203
  - # 2
    frequency:   19.3709069652
  - # 3
    frequency:   24.3629820494
  - # 4
    frequency:   33.4055794894
  - # 5
    frequency:   45.2637912840
  - # 6
    frequency:   45.7204313037

- q-position: [    0.4933333,    0.2466667,    0.0000000 ]
  distance:    0.1061433
  band:
  - # 1
    frequency:   10.1733608651
  - # 2
    frequency:   19.1937559061
  - # 3
    frequency:   24.6116212255
  - # 4
    frequency:   33.6398727583
  - # 5
    frequency:   45.0157077476
  - # 6
    frequency:   45.6152927187

- q-position: [    0.5000000,    0.2500000,    0.0000000 ]
  distance:    0.1075777
  band:
  - # 1
    frequency:   10.3832257179
  - # 2
    frequency:   19.0148359870
  - # 3
    frequency:   24.8572476071
  - # 4
    frequency:   33.8674589876
  - # 5
    frequency:   44.7603912945
  - # 6
    frequency:   45.5130546076

- q-position: [    0.5066667,    0.2533333,    0.0000000 ]
  distance:    0.1090120
  band:
  - # 1
    frequency:   10.5910060829
  - # 2
    frequency:   18.8343905390
  - # 3
    frequency:   25.0997880907
  - # 4
    frequency:   34.0884578346
  - # 5
    frequency:   44.4994607465
  - # 6
    frequency:   45.4127706285

- q-position: [    0.5133333,    0.2566667,    0.0000000 ]
  distance:    0.1104464
  band:
  - # 1
    frequency:   10.7965659124
  - # 2
    frequency:   18.6526739503
  - # 3
    frequency:   25.3391445027
  - # 4
    frequency:   34.3030185762
  - # 5
    frequency:   44.2338132207
  - # 6
    frequency:   45.3142482130

- q-position: [    0.5200000,    0.2600000,    0.0000000 ]
  distance:    0.1118808
  band:
  - # 1
    frequency:   10.9997744360
  - # 2
    frequency:   18.4699509607
  - # 3
    frequency:   25.5751906125
  - # 4
    frequency:   34.5113212423
  - # 5
    frequency:   43.9640676264
  - # 6
    frequency:   45.2176011573

- q-position: [    0.5266667,    0.2633333,    0.0000000 ]
  distance:    0.1133152
  band:
  - # 1
    frequency:   11.2005063704
  - # 2
    frequency:   18.2864958800
  - # 3
    frequency:   25.8077690108
  - # 4
    frequency:   34.7135772969
  - # 5
    frequency:   43.6907311278
  - # 6
    frequency:   45.1230795531

- q-position: [    0.5333333,    0.2666667,    0.0000000 ]
  distance:    0.1147495
  band:
  - # 1
    frequency:   11.3986421073
  - # 2
    frequency:   18.1025917304
  - # 3
    frequency:   26.0366878134
  - # 4
    frequency:   34.9100297837
  - # 5
    frequency:   43.4142708996
  - # 6
    frequency:   45.0309949066

- q-position: [    0.5400000,    0.2700000,    0.0000000 ]
  distance:    0.1161839
  band:
  - # 1
    frequency:   11.5940678775
  - # 2
    frequency:   17.9185293147
  - # 3
    frequency:   26.2617171391
  - # 4
    frequency:   35.1009528559
  - # 5
    frequency:   43.1351494358
  - # 6
    frequency:   44.9416823690

- q-position: [    0.5466667,    0.2733333,    0.0000000 ]
  distance:    0.1176183
  band:
  - # 1
    frequency:   11.7866758870
  - # 2
    frequency:   17.7346062126
  - # 3
    frequency:   26.4825852962
  - # 4
    frequency:   35.2866506138
  - # 5
    frequency:   42.8538444600
  - # 6
    frequency:   44.8554792245

- q-position: [    0.5533333,    0.2766667,    0.0000000 ]
  distance:    0.1190526
  band:
  - # 1
    frequency:   11.9763644221
  - # 2
    frequency:   17.5511257088
  - # 3
    frequency:   26.6989746063
  - # 4
    frequency:   35.4674551883
  - # 5
    frequency:   42.5708619285
  - # 6
    frequency:   44.7727113399

- q-position: [    0.5600000,    0.2800000,    0.0000000 ]
  distance:    0.1204870
  band:
  - # 1
    frequency:   12.1630379155
  - # 2
    frequency:   17.3683956599
  - # 3
    frequency:   26.9105167860
  - # 4
    frequency:   35.6437240251
  - # 5
    frequency:   42.2867458907
  - # 6
    frequency:   44.6936839951

- q-position: [    0.5666667,    0.2833333,    0.0000000 ]
  distance:    0.1219214
  band:
  - # 1
    frequency:   12.3466069641
  - # 2
    frequency:   17.1867273112
  - # 3
    frequency:   27.1167878074
  - # 4
    frequency:   35.8158363440
  - # 5
    frequency:   42.0020870219
  - # 6
    frequency:   44.6186754489

- q-position: [    0.5733333,    0.2866667,    0.0000000 ]
  distance:    0.1233557
  band:
  - # 1
    frequency:   12.5269882851
  - # 2
    frequency:   17.0064340794
  - # 3
    frequency:   27.3173021713
  - # 4
    frequency:   35.9841887733
  - # 5
    frequency:   41.7175307616
  - # 6
    frequency:   44.5479324387

- q-position: [    0.5800000,    0.2900000,    0.0000000 ]
  distance:    0.1247901
  band:
  - # 1
    frequency:   12.7041045862
  - # 2
    frequency:   16.8278303270
  - # 3
    frequency:   27.5115065518
  - # 4
    frequency:   36.1491901830
  - # 5
    frequency:   41.4337855623
  - # 6
    frequency:   44.4816671971

- q-position: [    0.5866667,    0.2933333,    0.0000000 ]
  distance:    0.1262245
  band:
  - # 1
    frequency:   12.8778843137
  - # 2
    frequency:   16.6512301714
  - # 3
    frequency:   27.6987728241
  - # 4
    frequency:   36.3112557526
  - # 5
    frequency:   41.1516315058
  - # 6
    frequency:   44.4200557460

- q-position: [    0.5933333,    0.2966667,    0.0000000 ]