50   
2    

1    
  0.0090722118014698  -0.0052378439113536   0.0170370174675489
  -0.4093385966    0.1925601652   -0.1129799370
  -0.0468865383   -0.0135241942   -0.0040166189
  -0.0665556795   -0.0001165718   -0.0000287417
  -0.0667305503   -0.0004037239   -0.0000367942
  -0.0454999529   -0.0105592624   -0.0037889034
  -0.0626647851    0.0193877734   -0.0039126464
  -0.0650000979   -0.0003520783    0.0007322305
  -0.0669381997   -0.0000998366   -0.0001612350
  -0.0657606843   -0.0016089750    0.0007374464
  -0.0817111805   -0.0133790214   -0.0039216366
  -0.0679654670    0.0017628309   -0.0000337479
  -0.0681036206    0.0019235384   -0.0001601501
  -0.0692985476   -0.0000735075   -0.0001634685
  -0.0690553527   -0.0000842477   -0.0000290619
  -0.0664831467   -0.0003613888    0.0007356684
  -0.0678094776    0.0020470040   -0.0000378214
  -0.0664680978   -0.0003432584    0.0007358659
  -0.0692420368   -0.0004154140   -0.0000251167
  -0.0693136498   -0.0000734935   -0.0001633628
  -0.0680926809    0.0019206673   -0.0001599821
  -0.0643116264    0.0164794664   -0.0037981236
  -0.0801597079   -0.0106295349   -0.0040350307
  -0.0657523200   -0.0015876454    0.0007397015
  -0.0669381254   -0.0000956265   -0.0001611111
  -0.0649833419   -0.0003458814    0.0007296986
   0.2235113734   -0.0279852740    0.0483277300
   0.0644585690   -0.0030703084   -0.0045472775
   0.0673989033   -0.0001682247    0.0005633577
   0.0683849406    0.0038113493   -0.0045779558
   0.1672831614   -0.1164283288    0.0504200213
   0.0629260374   -0.0004161019   -0.0045385683
   0.0655371778   -0.0003723901    0.0004039230
   0.0666606079    0.0015171794    0.0004135894
   0.0654056673    0.0037715635   -0.0045645973
   0.0775587226   -0.0060367422    0.0032504431
   0.0684334832   -0.0019729863    0.0005597278
   0.0677641969   -0.0003985568    0.0004133373
   0.0695166888   -0.0001752658    0.0005596242
   0.0683106168    0.0006484885   -0.0001043859
   0.0671472082   -0.0013727383   -0.0001054144
   0.0708416152   -0.0004374646   -0.0045646861
   0.0693285857   -0.0030761647   -0.0045600810
   0.0686806765    0.0000007771   -0.0001052809
   0.0697778012   -0.0015183543    0.0001746464
   0.0678530008   -0.0013787646   -0.0001031835
   0.1166227934   -0.0274219511    0.0495705256
   0.0708012409    0.0057609519    0.0032464186
   0.0663391320    0.0000362518   -0.0001072901
   0.0666995907    0.0006487324   -0.0001041859
   0.0638216719   -0.0059934617    0.0032824410

1    
 -0.0090722118014698   0.0052378439113536  -0.0170370174675489
   0.2718526519   -0.1984111965    0.1130066063
  -0.0870108449    0.0134172472    0.0037886098
  -0.0675997996    0.0001106188    0.0000367519
  -0.0674381707    0.0004055584    0.0000286951
  -0.0888848190    0.0107337447    0.0040163536
  -0.0713916817   -0.0193563497    0.0038916173
  -0.0691299086    0.0003503229   -0.0007356097
  -0.0672300174    0.0000872358    0.0001611881
  -0.0684169750    0.0016345525   -0.0007342097
  -0.0524729782    0.0134838651    0.0039422922
  -0.0661775442   -0.0017571748    0.0000317266
  -0.0660449061   -0.0019198528    0.0001622937
  -0.0648650938    0.0000857049    0.0001612333
  -0.0651094953    0.0001022909    0.0000310447
  -0.0676786447    0.0003595837   -0.0007357286
  -0.0663520092   -0.0020520841    0.0000277202
  -0.0676885835    0.0003508344   -0.0007359180
  -0.0649225434    0.0004123179    0.0000350568
  -0.0648790387    0.0000836411    0.0001610637
  -0.0660432267   -0.0019433366    0.0001621846
  -0.0697737200   -0.0166160361    0.0040052640
  -0.0541562414    0.0106261391    0.0038280501
  -0.0684293916    0.0016370282   -0.0007316130
  -0.0672145460    0.0001098417    0.0001610470
  -0.0691242697    0.0003524348   -0.0007377983
  -0.0855356127    0.0284352489   -0.0500921465
   0.0697112563    0.0030348345    0.0045567904
   0.0667703412    0.0001829676   -0.0005634160
   0.0657402986   -0.0038211576    0.0045686197
  -0.0346762996    0.1199908495   -0.0486808004
   0.0712168304    0.0004379976    0.0045657368
   0.0685963720    0.0003764134   -0.0004045132
   0.0675171277   -0.0015385084   -0.0004130832
   0.0687825092   -0.0037758256    0.0045374646
   0.0565923428    0.0060209730   -0.0032504985
   0.0657238974    0.0019825888   -0.0005671146
   0.0663962839    0.0003988352   -0.0004134001
   0.0646537182    0.0001772265   -0.0005522978
   0.0658527999   -0.0006412862    0.0001023500
   0.0670183074    0.0013787645    0.0001073520
   0.0632925976    0.0004123183    0.0045824157
   0.0648236369    0.0030414211    0.0045422611
   0.0654803441   -0.0000121478    0.0001014389
   0.0643922977    0.0015349513   -0.0001746951
   0.0662973352    0.0013736090    0.0001069345
   0.0185095488    0.0291058617   -0.0495695522
   0.0634749799   -0.0058048643   -0.0032544489
   0.0678387143   -0.0000228976    0.0001054566
   0.0674640222   -0.0006272294    0.0001059283
   0.0702481492    0.0060721243   -0.0032747037
