calculator: siesta
length_unit: au
nqpoint: 303    
npath: 3      
segment_nqpoint:
- 101
- 101
- 101
labels:
- [ 'G', 'K' ]
- [ 'K', 'M' ]
- [ 'M', '$\Gamma$' ]
reciprocal_lattice:
- [   0.12422000,  -0.21515535,   0.00000000 ] # a*
- [   0.12422000,   0.21515535,   0.00000000 ] # b*
- [   0.00000000,   0.00000000,   0.02645886 ] # c*
natom: 2      
lattice:
- [     4.025116671915840,    -2.323902187674509,     0.000000000000000 ] # a
- [     4.025116671915840,     2.323902187674509,     0.000000000000000 ] # b
- [     0.000000000000000,     0.000000000000000,    37.794522740993806 ] # c
points:
- symbol: C # 1
  coordinates: [  0.000000000000000,  0.000000000000000,  0.000000000000000 ]
  mass: 12.010700
- symbol: C # 2
  coordinates: [  0.333098591549296,  0.333098591549296,  0.000000000000000 ]
  mass: 12.010700

phonon:
- q-position: [    0.0000000,    0.0000000,    0.0000000 ]
  distance:    0.0000000
  band:
  - # 1
    frequency:  -82.4353110994
  - # 2
    frequency:  -82.3060571840
  - # 3
    frequency:   -0.0010540243
  - # 4
    frequency:   -0.0004526951
  - # 5
    frequency:    0.0008008858
  - # 6
    frequency:   23.7290061044

- q-position: [    0.0066667,    0.0033333,    0.0000000 ]
  distance:    0.0014344
  band:
  - # 1
    frequency:  -82.4061093909
  - # 2
    frequency:  -82.2693044761
  - # 3
    frequency:   -0.1651743397
  - # 4
    frequency:    0.9557427373
  - # 5
    frequency:    1.4315148016
  - # 6
    frequency:   23.7291451106

- q-position: [    0.0133333,    0.0066667,    0.0000000 ]
  distance:    0.0028687
  band:
  - # 1
    frequency:  -82.3185276252
  - # 2
    frequency:  -82.1590529387
  - # 3
    frequency:   -0.3300427048
  - # 4
    frequency:    1.9100595109
  - # 5
    frequency:    2.8614101291
  - # 6
    frequency:   23.7295557123

- q-position: [    0.0200000,    0.0100000,    0.0000000 ]
  distance:    0.0043031
  band:
  - # 1
    frequency:  -82.1726350158
  - # 2
    frequency:  -81.9753229907
  - # 3
    frequency:   -0.4943019835
  - # 4
    frequency:    2.8615256176
  - # 5
    frequency:    4.2880692797
  - # 6
    frequency:   23.7302187093

- q-position: [    0.0266667,    0.0133333,    0.0000000 ]
  distance:    0.0057375
  band:
  - # 1
    frequency:  -81.9685454410
  - # 2
    frequency:  -81.7181494486
  - # 3
    frequency:   -0.6576493495
  - # 4
    frequency:    3.8087161047
  - # 5
    frequency:    5.7098844073
  - # 6
    frequency:   23.7311022683

- q-position: [    0.0333333,    0.0166667,    0.0000000 ]
  distance:    0.0071718
  band:
  - # 1
    frequency:  -81.7064171583
  - # 2
    frequency:  -81.3875807672
  - # 3
    frequency:   -0.8197844350
  - # 4
    frequency:    4.7502066320
  - # 5
    frequency:    7.1252598188
  - # 6
    frequency:   23.7321621705

- q-position: [    0.0400000,    0.0200000,    0.0000000 ]
  distance:    0.0086062
  band:
  - # 1
    frequency:  -81.3864528957
  - # 2
    frequency:  -80.9836774730
  - # 3
    frequency:   -0.9804099459
  - # 4
    frequency:    5.6845734945
  - # 5
    frequency:    8.5326163220
  - # 6
    frequency:   23.7333421527

- q-position: [    0.0466667,    0.0233333,    0.0000000 ]
  distance:    0.0100406
  band:
  - # 1
    frequency:  -81.0088998125
  - # 2
    frequency:  -80.5065102833
  - # 3
    frequency:   -1.1392323167
  - # 4
    frequency:    6.6103935947
  - # 5
    frequency:    9.9303957064
  - # 6
    frequency:   23.7345743362

- q-position: [    0.0533333,    0.0266667,    0.0000000 ]
  distance:    0.0114750
  band:
  - # 1
    frequency:  -80.5740492777
  - # 2
    frequency:  -79.9561579471
  - # 3
    frequency:   -1.2959623159
  - # 4
    frequency:    7.5262442981
  - # 5
    frequency:   11.3170654559
  - # 6
    frequency:   23.7357797365

- q-position: [    0.0600000,    0.0300000,    0.0000000 ]
  distance:    0.0129093
  band:
  - # 1
    frequency:  -80.0822365391
  - # 2
    frequency:  -79.3327047117
  - # 3
    frequency:   -1.4503155847
  - # 4
    frequency:    8.4307031391
  - # 5
    frequency:   12.6911237592
  - # 6
    frequency:   23.7368688461

- q-position: [    0.0666667,    0.0333333,    0.0000000 ]
  distance:    0.0143437
  band:
  - # 1
    frequency:  -79.5338403338
  - # 2
    frequency:  -78.6362373370
  - # 3
    frequency:   -1.6020130985
  - # 4
    frequency:    9.3223473443
  - # 5
    frequency:   14.0511048838
  - # 6
    frequency:   23.7377422823

- q-position: [    0.0733333,    0.0366667,    0.0000000 ]
  distance:    0.0157781
  band:
  - # 1
    frequency:  -78.9292824688
  - # 2
    frequency:  -77.8668415959
  - # 3
    frequency:   -1.7507815439
  - # 4
    frequency:   10.1997531384
  - # 5
    frequency:   15.3955849870
  - # 6
    frequency:   23.7382914895

- q-position: [    0.0800000,    0.0400000,    0.0000000 ]
  distance:    0.0172124
  band:
  - # 1
    frequency:  -78.2690273918
  - # 2
    frequency:  -77.0245982011
  - # 3
    frequency:   -1.8963536042
  - # 4
    frequency:   11.0614947943
  - # 5
    frequency:   16.7231884454
  - # 6
    frequency:   23.7383994872

- q-position: [    0.0866667,    0.0433333,    0.0000000 ]
  distance:    0.0186468
  band:
  - # 1
    frequency:  -77.5535817680
  - # 2
    frequency:  -76.1095780939
  - # 3
    frequency:   -2.0384681500
  - # 4
    frequency:   11.9061433851
  - # 5
    frequency:   18.0325947971
  - # 6
    frequency:   23.7379416533

- q-position: [    0.0933333,    0.0466667,    0.0000000 ]
  distance:    0.0200812
  band:
  - # 1
    frequency:  -76.7834940879
  - # 2
    frequency:  -75.1218370128
  - # 3
    frequency:   -2.1768703295
  - # 4
    frequency:   12.7322651915
  - # 5
    frequency:   19.3225463992
  - # 6
    frequency:   23.7367865340

- q-position: [    0.1000000,    0.0500000,    0.0000000 ]
  distance:    0.0215155
  band:
  - # 1
    frequency:  -75.9593543311
  - # 2
    frequency:  -74.0614092483
  - # 3
    frequency:   -2.3113115570
  - # 4
    frequency:   13.5384197115
  - # 5
    frequency:   20.5918569198
  - # 6
    frequency:   23.7347966691

- q-position: [    0.1066667,    0.0533333,    0.0000000 ]
  distance:    0.0229499
  band:
  - # 1
    frequency:  -75.0817937227
  - # 2
    frequency:  -72.9283004610
  - # 3
    frequency:   -2.4415493960
  - # 4
    frequency:   14.3231572168
  - # 5
    frequency:   21.8394207951
  - # 6
    frequency:   23.7318294261

- q-position: [    0.1133333,    0.0566667,    0.0000000 ]
  distance:    0.0243843
  band:
  - # 1
    frequency:  -74.1514846275
  - # 2
    frequency:  -71.7224794173
  - # 3
    frequency:   -2.5673473366
  - # 4
    frequency:   15.0850157922
  - # 5
    frequency:   23.0642238005
  - # 6
    frequency:   23.7277378329

- q-position: [    0.1200000,    0.0600000,    0.0000000 ]
  distance:    0.0258186
  band:
  - # 1
    frequency:  -73.1691406398
  - # 2
    frequency:  -70.4438684548
  - # 3
    frequency:   -2.6884744637
  - # 4
    frequency:   15.8225177900
  - # 5
    frequency:   23.7223714020
  - # 6
    frequency:   24.2653548976

- q-position: [    0.1266667,    0.0633333,    0.0000000 ]
  distance:    0.0272530
  band:
  - # 1
    frequency:  -72.1355169436
  - # 2
    frequency:  -69.0923324413
  - # 3
    frequency:   -2.8047050163
  - # 4
    frequency:   16.5341656269
  - # 5
    frequency:   23.7155769406
  - # 6
    frequency:   25.4420195351

- q-position: [    0.1333333,    0.0666667,    0.0000000 ]
  distance:    0.0286874
  band:
  - # 1
    frequency:  -71.0514110395
  - # 2
    frequency:  -67.6676659226
  - # 3
    frequency:   -2.9158178331
  - # 4
    frequency:   17.2184368450
  - # 5
    frequency:   23.7071993390
  - # 6
    frequency:   26.5935545920

- q-position: [    0.1400000,    0.0700000,    0.0000000 ]
  distance:    0.0301217
  band:
  - # 1
    frequency:  -69.9176639614
  - # 2
    frequency:  -66.1695780607
  - # 3
    frequency:   -3.0215956834
  - # 4
    frequency:   17.8737783592
  - # 5
    frequency:   23.6970823337
  - # 6
    frequency:   27.7194451599

- q-position: [    0.1466667,    0.0733333,    0.0000000 ]
  distance:    0.0315561
  band:
  - # 1
    frequency:  -68.7351621442
  - # 2
    frequency:  -64.5976748300
  - # 3
    frequency:   -3.1218244768
  - # 4
    frequency:   18.4985998096
  - # 5
    frequency:   23.6850692404
  - # 6
    frequency:   28.8193433559

- q-position: [    0.1533333,    0.0766667,    0.0000000 ]
  distance:    0.0329905
  band:
  - # 1
    frequency:  -67.5048401492
  - # 2
    frequency:  -62.9514377526
  - # 3
    frequency:   -3.2162923464
  - # 4
    frequency:   19.0912659477
  - # 5
    frequency:   23.6710036540
  - # 6
    frequency:   29.8930893395

- q-position: [    0.1600000,    0.0800000,    0.0000000 ]
  distance:    0.0344249
  band:
  - # 1
    frequency:  -66.2276845175
  - # 2
    frequency:  -61.2301981736
  - # 3
    frequency:   -3.3047885946
  - # 4
    frequency:   19.6500879894
  - # 5
    frequency:   23.6547301126
  - # 6
    frequency:   30.9407346615

- q-position: [    0.1666667,    0.0833333,    0.0000000 ]
  distance:    0.0358592
  band:
  - # 1
    frequency:  -64.9047391032
  - # 2
    frequency:  -59.4331056659
  - # 3
    frequency:   -3.3871024917
  - # 4
    frequency:   20.1733138944
  - # 5
    frequency:   23.6360947249
  - # 6
    frequency:   31.9625679923

- q-position: [    0.1733333,    0.0866667,    0.0000000 ]
  distance:    0.0372936
  band:
  - # 1
    frequency:  -63.5371123478
  - # 2
    frequency:  -57.5590885299
  - # 3
    frequency:   -3.4630219072
  - # 4
    frequency:   20.6591175597
  - # 5
    frequency:   23.6149457591
  - # 6
    frequency:   32.9591431345

- q-position: [    0.1800000,    0.0900000,    0.0000000 ]
  distance:    0.0387280
  band:
  - # 1
    frequency:  -62.1259870993
  - # 2
    frequency:  -55.6068033891
  - # 3
    frequency:   -3.5323317550
  - # 4
    frequency:   21.1055869655
  - # 5
    frequency:   23.5911341929
  - # 6
    frequency:   33.9313090055

- q-position: [    0.1866667,    0.0933333,    0.0000000 ]
  distance:    0.0401623
  band:
  - # 1
    frequency:  -60.6726337735
  - # 2
    frequency:  -53.5745693686
  - # 3
    frequency:   -3.5948122211
  - # 4
    frequency:   21.5107113865
  - # 5
    frequency:   23.5645142254
  - # 6
    frequency:   34.8802409319

- q-position: [    0.1933333,    0.0966667,    0.0000000 ]
  distance:    0.0415967
  band:
  - # 1
    frequency:  -59.1784279088
  - # 2
    frequency:  -51.4602799285
  - # 3
    frequency:   -3.6502367384
  - # 4
    frequency:   21.8723678874
  - # 5
    frequency:   23.5349437505
  - # 6
    frequency:   35.8074720978

- q-position: [    0.2000000,    0.1000000,    0.0000000 ]
  distance:    0.0430311
  band:
  - # 1
    frequency:  -57.6448735092
  - # 2
    frequency:  -49.2612814846
  - # 3
    frequency:   -3.6983696570
  - # 4
    frequency:   22.1883074744
  - # 5
    frequency:   23.5022847945
  - # 6
    frequency:   36.7149232622

- q-position: [    0.2066667,    0.1033333,    0.0000000 ]
  distance:    0.0444654
  band:
  - # 1
    frequency:  -56.0736340271
  - # 2
    frequency:  -46.9742014119
  - # 3
    frequency:   -3.7389635492
  - # 4
    frequency:   22.4561414901
  - # 5
    frequency:   23.4664039165
  - # 6
    frequency:   37.6049278630

- q-position: [    0.2133333,    0.1066667,    0.0000000 ]
  distance:    0.0458998
  band:
  - # 1
    frequency:  -54.4665734542
  - # 2
    frequency:  -44.5946969085
  - # 3
    frequency:   -3.7717560634
  - # 4
    frequency:   22.6733291521
  - # 5
    frequency:   23.4271725758
  - # 6
    frequency:   38.4802482854

- q-position: [    0.2200000,    0.1100000,    0.0000000 ]
  distance:    0.0473342
  band:
  - # 1
    frequency:  -52.8258108112
  - # 2
    frequency:  -42.1170767781
  - # 3
    frequency:   -3.7964662189
  - # 4
    frequency:   22.8371675821
  - # 5
    frequency:   23.3844674660
  - # 6
    frequency:   39.3440773875

- q-position: [    0.2266667,    0.1133333,    0.0000000 ]
  distance:    0.0487685
  band:
  - # 1
    frequency:  -51.1537924394
  - # 2
    frequency:  -39.5337131131
  - # 3
    frequency:   -3.8127899973
  - # 4
    frequency:   22.9447863365
  - # 5
    frequency:   23.3381708191
  - # 6
    frequency:   40.2000174048

- q-position: [    0.2333333,    0.1166667,    0.0000000 ]
  distance:    0.0502029
  band:
  - # 1
    frequency:  -49.4533879707
  - # 2
    frequency:  -36.8340937044
  - # 3
    frequency:   -3.8203950351
  - # 4
    frequency:   22.9931494518
  - # 5
    frequency:   23.2881706799
  - # 6
    frequency:   41.0520263440

- q-position: [    0.2400000,    0.1200000,    0.0000000 ]
  distance:    0.0516373
  band:
  - # 1
    frequency:  -47.7280178307
  - # 2
    frequency:  -34.0032340637
  - # 3
    frequency:   -3.8189141592
  - # 4
    frequency:   22.9790695850
  - # 5
    frequency:   23.2343611543
  - # 6
    frequency:   41.9043204641

- q-position: [    0.2466667,    0.1233333,    0.0000000 ]
  distance:    0.0530717
  band:
  - # 1
    frequency:  -45.9818227185
  - # 2
    frequency:  -31.0188847071
  - # 3
    frequency:   -3.8079374064
  - # 4
    frequency:   22.8992413733
  - # 5
    frequency:   23.1766426318
  - # 6
    frequency:   42.7612213672

- q-position: [    0.2533333,    0.1266667,    0.0000000 ]
  distance:    0.0545060
  band:
  - # 1
    frequency:  -44.2198888791
  - # 2
    frequency:  -27.8462994812
  - # 3
    frequency:   -3.7870020299
  - # 4
    frequency:   22.7503054501
  - # 5
    frequency:   23.1149219857
  - # 6
    frequency:   43.6269389805

- q-position: [    0.2600000,    0.1300000,    0.0000000 ]
  distance:    0.0559404
  band:
  - # 1
    frequency:  -42.4485472219
  - # 2
    frequency:  -24.4275283817
  - # 3
    frequency:   -3.7555797925
  - # 4
    frequency:   22.5289623373
  - # 5
    frequency:   23.0491127510
  - # 6
    frequency:   44.5052889264

- q-position: [    0.2666667,    0.1333333,    0.0000000 ]
  distance:    0.0573748
  band:
  - # 1
    frequency:  -40.6757694044
  - # 2
    frequency:  -20.6564044187
  - # 3
    frequency:   -3.7130605329
  - # 4
    frequency:   22.2321707743
  - # 5
    frequency:   22.9791352838
  - # 6
    frequency:   45.3993555978

- q-position: [    0.2733333,    0.1366667,    0.0000000 ]
  distance:    0.0588091
  band:
  - # 1
    frequency:  -38.9116893738
  - # 2
    frequency:  -16.3060488449
  - # 3
    frequency:   -3.6587305146
  - # 4
    frequency:   21.8574998272
  - # 5
    frequency:   22.9049169021
  - # 6
    frequency:   46.3111301173

- q-position: [    0.2800000,    0.1400000,    0.0000000 ]
  distance:    0.0602435
  band:
  - # 1
    frequency:  -37.1692828998
  - # 2
    frequency:  -10.7083730089
  - # 3
    frequency:   -3.5917433024
  - # 4
    frequency:   21.4038018289
  - # 5
    frequency:   22.8263920112
  - # 6
    frequency:   47.2411715758

- q-position: [    0.2866667,    0.1433333,    0.0000000 ]
  distance:    0.0616779
  band:
  - # 1
    frequency:  -35.4652359854
  - # 2
    frequency:   -3.5110796599
  - # 3
    frequency:    5.1725515509
  - # 4
    frequency:   20.8727460939
  - # 5
    frequency:   22.7435022131
  - # 6
    frequency:   48.1883532531

- q-position: [    0.2933333,    0.1466667,    0.0000000 ]
  distance:    0.0631122
  band:
  - # 1
    frequency:  -33.8210153922
  - # 2
    frequency:   -3.4154908236
  - # 3
    frequency:   12.5770984014
  - # 4
    frequency:   20.2739448500
  - # 5
    frequency:   22.6561964045
  - # 6
    frequency:   49.1497541818

- q-position: [    0.3000000,    0.1500000,    0.0000000 ]
  distance:    0.0645466
  band:
  - # 1
    frequency:  -32.2640985043
  - # 2
    frequency:   -3.3034157139
  - # 3
    frequency:   16.6729740352
  - # 4
    frequency:   19.6636657796
  - # 5
    frequency:   22.5644308613
  - # 6
    frequency:   50.1207350473

- q-position: [    0.3066667,    0.1533333,    0.0000000 ]
  distance:    0.0659810
  band:
  - # 1
    frequency:  -30.8291826944
  - # 2
    frequency:   -3.1728555400
  - # 3
    frequency:   18.4796438251
  - # 4
    frequency:   20.2102536398
  - # 5
    frequency:   22.4681693133
  - # 6
    frequency:   51.0951992525

- q-position: [    0.3133333,    0.1566667,    0.0000000 ]
  distance:    0.0674153
  band:
  - # 1
    frequency:  -29.5589124696
  - # 2
    frequency:   -3.0211751422
  - # 3
    frequency:   17.8596544629
  - # 4
    frequency:   22.3673830091
  - # 5
    frequency:   22.5338604630
  - # 6
    frequency:   52.0659977201

- q-position: [    0.3200000,    0.1600000,    0.0000000 ]
  distance:    0.0688497
  band:
  - # 1
    frequency:  -28.5031954337
  - # 2
    frequency:   -2.8447702234
  - # 3
    frequency:   17.0652562033
  - # 4
    frequency:   22.2620507726
  - # 5
    frequency:   24.6115719953
  - # 6
    frequency:   53.0254059844

- q-position: [    0.3266667,    0.1633333,    0.0000000 ]
  distance:    0.0702841
  band:
  - # 1
    frequency:  -27.7156764583
  - # 2
    frequency:   -2.6384686870
  - # 3
    frequency:   16.2711603046
  - # 4
    frequency:   22.1521590520
  - # 5
    frequency:   26.4186212442
  - # 6
    frequency:   53.9655950113

- q-position: [    0.3333333,    0.1666667,    0.0000000 ]
  distance:    0.0717185
  band:
  - # 1
    frequency:  -27.2460517109
  - # 2
    frequency:   -2.3943460648
  - # 3
    frequency:   15.5378118625
  - # 4
    frequency:   22.0377019627
  - # 5
    frequency:   28.0105771980
  - # 6
    frequency:   54.8790323712

- q-position: [    0.3400000,    0.1700000,    0.0000000 ]
  distance:    0.0731528
  band:
  - # 1
    frequency:  -27.1287425345
  - # 2
    frequency:   -2.0990439518
  - # 3
    frequency:   14.9142507892
  - # 4
    frequency:   21.9186813232
  - # 5
    frequency:   29.4301878839
  - # 6
    frequency:   55.7587780990

- q-position: [    0.3466667,    0.1733333,    0.0000000 ]
  distance:    0.0745872
  band:
  - # 1
    frequency:  -27.3720964768
  - # 2
    frequency:   -1.7262896715
  - # 3
    frequency:   14.4327564033
  - # 4
    frequency:   21.7951066877
  - # 5
    frequency:   30.7080999421
  - # 6
    frequency:   56.5986677428

- q-position: [    0.3533333,    0.1766667,    0.0000000 ]
  distance:    0.0760216
  band:
  - # 1
    frequency:  -27.9545403005
  - # 2
    frequency:   -1.2060623940
  - # 3
    frequency:   14.0994943679
  - # 4
    frequency:   21.6669953730
  - # 5
    frequency:   31.8661110702
  - # 6
    frequency:   57.3933955582

- q-position: [    0.3600000,    0.1800000,    0.0000000 ]
  distance:    0.0774559
  band:
  - # 1
    frequency:  -28.8307720489
  - # 2
    frequency:    0.4134281241
  - # 3
    frequency:   13.8942048653
  - # 4
    frequency:   21.5343724824
  - # 5
    frequency:   32.9196869290
  - # 6
    frequency:   58.1385210875

- q-position: [    0.3666667,    0.1833333,    0.0000000 ]
  distance:    0.0788903
  band:
  - # 1
    frequency:  -29.9441813458
  - # 2
    frequency:    1.3772272245
  - # 3
    frequency:   13.7800065475
  - # 4
    frequency:   21.3972709266
  - # 5
    frequency:   33.8798007016
  - # 6
    frequency:   58.8304242201

- q-position: [    0.3733333,    0.1866667,    0.0000000 ]
  distance:    0.0803247
  band:
  - # 1
    frequency:  -31.2385885644
  - # 2
    frequency:    1.9295276865
  - # 3
    frequency:   13.7163136809
  - # 4
    frequency:   21.2557314414
  - # 5
    frequency:   34.7542870036
  - # 6
    frequency:   59.4662305987

- q-position: [    0.3800000,    0.1900000,    0.0000000 ]
  distance:    0.0817590
  band:
  - # 1
    frequency:  -32.6652286936
  - # 2
    frequency:    2.3769566773
  - # 3
    frequency:   13.6680671103
  - # 4
    frequency:   21.1098026040
  - # 5
    frequency:   35.5488372132
  - # 6
    frequency:   60.0437239435

- q-position: [    0.3866667,    0.1933333,    0.0000000 ]
  distance:    0.0831934
  band:
  - # 1
    frequency:  -34.1850246262
  - # 2
    frequency:    2.7707748198
  - # 3
    frequency:   13.6094893916
  - # 4
    frequency:   20.9595408474
  - # 5
    frequency:   36.2677206265
  - # 6
    frequency:   60.5612565219

- q-position: [    0.3933333,    0.1966667,    0.0000000 ]
  distance:    0.0846278
  band:
  - # 1
    frequency:  -35.7680350260
  - # 2
    frequency:    3.1312386626
  - # 3
    frequency:   13.5240329720
  - # 4
    frequency:   20.8050104732
  - # 5
    frequency:   36.9142950880
  - # 6
    frequency:   61.0176645523

- q-position: [    0.4000000,    0.2000000,    0.0000000 ]
  distance:    0.0860621
  band:
  - # 1
    frequency:  -37.3918002968
  - # 2
    frequency:    3.4687097520
  - # 3
    frequency:   13.4026944288
  - # 4
    frequency:   20.6462836643
  - # 5
    frequency:   37.4913590336
  - # 6
    frequency:   61.4121920756

- q-position: [    0.4066667,    0.2033333,    0.0000000 ]
  distance:    0.0874965
  band:
  - # 1
    frequency:  -39.0395625757
  - # 2
    frequency:    3.7892709774
  - # 3
    frequency:   13.2420698076
  - # 4
    frequency:   20.4834404959
  - # 5
    frequency:   38.0013876278
  - # 6
    frequency:   61.7444246550

- q-position: [    0.4133333,    0.2066667,    0.0000000 ]
  distance:    0.0889309
  band:
  - # 1
    frequency:  -40.6987505053
  - # 2
    frequency:    4.0968174003
  - # 3
    frequency:   13.0427313946
  - # 4
    frequency:   20.3165689477
  - # 5
    frequency:   38.4466869606
  - # 6
    frequency:   62.0142329373

- q-position: [    0.4200000,    0.2100000,    0.0000000 ]
  distance:    0.0903652
  band:
  - # 1
    frequency:  -42.3598129977
  - # 2
    frequency:    4.3939967696
  - # 3
    frequency:   12.8080583644
  - # 4
    frequency:   20.1457649144
  - # 5
    frequency:   38.8294921969
  - # 6
    frequency:   62.2217253798

- q-position: [    0.4266667,    0.2133333,    0.0000000 ]
  distance:    0.0917996
  band:
  - # 1
    frequency:  -44.0153648591
  - # 2
    frequency:    4.6826887868
  - # 3
    frequency:   12.5434720631
  - # 4
    frequency:   19.9711322181
  - # 5
    frequency:   39.1520285773
  - # 6
    frequency:   62.3672091092

- q-position: [    0.4333333,    0.2166667,    0.0000000 ]
  distance:    0.0932340
  band:
  - # 1
    frequency:  -45.6595758191
  - # 2
    frequency:    4.9642721473
  - # 3
    frequency:   12.2559789407
  - # 4
    frequency:   19.7927826197
  - # 5
    frequency:   39.4165485549
  - # 6
    frequency:   62.4511577786

- q-position: [    0.4400000,    0.2200000,    0.0000000 ]
  distance:    0.0946684
  band:
  - # 1
    frequency:  -47.2877381268
  - # 2
    frequency:    5.2397837211
  - # 3
    frequency:   11.9539269016
  - # 4
    frequency:   19.6108358320
  - # 5
    frequency:   39.6253540910
  - # 6
    frequency:   62.4741853244

- q-position: [    0.4466667,    0.2233333,    0.0000000 ]
  distance:    0.0961027
  band:
  - # 1
    frequency:  -48.8959612701
  - # 2
    frequency:    5.5100185925
  - # 3
    frequency:   11.6468948864
  - # 4
    frequency:   19.4254195329
  - # 5
    frequency:   39.7808100615
  - # 6
    frequency:   62.4370246262

- q-position: [    0.4533333,    0.2266667,    0.0000000 ]
  distance:    0.0975371
  band:
  - # 1
    frequency:  -50.4809559796
  - # 2
    frequency:    5.7755956743
  - # 3
    frequency:   11.3456457319
  - # 4
    frequency:   19.2366693796
  - # 5
    frequency:   39.8853525916
  - # 6
    frequency:   62.3405102035

- q-position: [    0.4600000,    0.2300000,    0.0000000 ]
  distance:    0.0989715
  band:
  - # 1
    frequency:  -52.0398806663
  - # 2
    frequency:    6.0370022808
  - # 3
    frequency:   11.0620748495
  - # 4
    frequency:   19.0447290243
  - # 5
    frequency:   39.9414946972
  - # 6
    frequency:   62.1855642132

- q-position: [    0.4666667,    0.2333333,    0.0000000 ]
  distance:    0.1004058
  band:
  - # 1
    frequency:  -53.5702315677
  - # 2
    frequency:    6.2946253143
  - # 3
    frequency:   10.8090838157
  - # 4
    frequency:   18.8497501307
  - # 5
    frequency:   39.9518306709
  - # 6
    frequency:   61.9731851415

- q-position: [    0.4733333,    0.2366667,    0.0000000 ]
  distance:    0.1018402
  band:
  - # 1
    frequency:  -55.0697636183
  - # 2
    frequency:    6.5487736379
  - # 3
    frequency:   10.6003052070
  - # 4
    frequency:   18.6518923916
  - # 5
    frequency:   39.9190400419
  - # 6
    frequency:   61.7044386925

- q-position: [    0.4800000,    0.2400000,    0.0000000 ]
  distance:    0.1032746
  band:
  - # 1
    frequency:  -56.5364330555
  - # 2
    frequency:    6.7996944765
  - # 3
    frequency:   10.4496146455
  - # 4
    frequency:   18.4513235490
  - # 5
    frequency:   39.8458915596
  - # 6
    frequency:   61.3804504770

- q-position: [    0.4866667,    0.2433333,    0.0000000 ]
  distance:    0.1047089
  band:
  - # 1
    frequency:  -57.9683555066
  - # 2
    frequency:    7.0475856647
  - # 3
    frequency:   10.3704025835
  - # 4
    frequency:   18.2482194145
  - # 5
    frequency:   39.7352474136
  - # 6
    frequency:   61.0024001866

- q-position: [    0.4933333,    0.2466667,    0.0000000 ]
  distance:    0.1061433
  band:
  - # 1
    frequency:  -59.3637751917
  - # 2
    frequency:    7.2926049451
  - # 3
    frequency:   10.3746502451
  - # 4
    frequency:   18.0427638937
  - # 5
    frequency:   39.5900677571
  - # 6
    frequency:   60.5715170151

- q-position: [    0.5000000,    0.2500000,    0.0000000 ]
  distance:    0.1075777
  band:
  - # 1
    frequency:  -60.7210421659
  - # 2
    frequency:    7.5348771262
  - # 3
    frequency:   10.4719487414
  - # 4
    frequency:   17.8351490123
  - # 5
    frequency:   39.4134155200
  - # 6
    frequency:   60.0890761499

- q-position: [    0.5066667,    0.2533333,    0.0000000 ]
  distance:    0.1090120
  band:
  - # 1
    frequency:  -62.0385954234
  - # 2
    frequency:    7.7744996622
  - # 3
    frequency:   10.6686753346
  - # 4
    frequency:   17.6255749469
  - # 5
    frequency:   39.2084614432
  - # 6
    frequency:   59.5563962174

- q-position: [    0.5133333,    0.2566667,    0.0000000 ]
  distance:    0.1104464
  band:
  - # 1
    frequency:  -63.3149503042
  - # 2
    frequency:    8.0115470446
  - # 3
    frequency:   10.9675412814
  - # 4
    frequency:   17.4142500608
  - # 5
    frequency:   38.9784892470
  - # 6
    frequency:   58.9748376189

- q-position: [    0.5200000,    0.2600000,    0.0000000 ]
  distance:    0.1118808
  band:
  - # 1
    frequency:  -64.5486890824
  - # 2
    frequency:    8.2460742890
  - # 3
    frequency:   11.3676284130
  - # 4
    frequency:   17.2013909495
  - # 5
    frequency:   38.7269008394
  - # 6
    frequency:   58.3458017521

- q-position: [    0.5266667,    0.2633333,    0.0000000 ]
  distance:    0.1133152
  band:
  - # 1
    frequency:  -65.7384539188
  - # 2
    frequency:    8.4781197152
  - # 3
    frequency:   11.8648774509
  - # 4
    frequency:   16.9872224968
  - # 5
    frequency:   38.4572214868
  - # 6
    frequency:   57.6707311732

- q-position: [    0.5333333,    0.2666667,    0.0000000 ]
  distance:    0.1147495
  band:
  - # 1
    frequency:  -66.8829415822
  - # 2
    frequency:    8.7077071673
  - # 3
    frequency:   12.4528620400
  - # 4
    frequency:   16.7719779509
  - # 5
    frequency:   38.1731049129
  - # 6
    frequency:   56.9511108278

- q-position: [    0.5400000,    0.2700000,    0.0000000 ]
  distance:    0.1161839
  band:
  - # 1
    frequency:  -67.9808994964
  - # 2
    frequency:    8.9348477736
  - # 3
    frequency:   13.1236385201
  - # 4
    frequency:   16.5558990274
  - # 5
    frequency:   37.8783383685
  - # 6
    frequency:   56.1884705720

- q-position: [    0.5466667,    0.2733333,    0.0000000 ]
  distance:    0.1176183
  band:
  - # 1
    frequency:  -69.0311227857
  - # 2
    frequency:    9.1595413182
  - # 3
    frequency:   13.8685013053
  - # 4
    frequency:   16.3392360562
  - # 5
    frequency:   37.5768478602
  - # 6
    frequency:   55.3843893264

- q-position: [    0.5533333,    0.2766667,    0.0000000 ]
  distance:    0.1190526
  band:
  - # 1
    frequency:  -70.0324520712
  - # 2
    frequency:    9.3817772614
  - # 3
    frequency:   14.6785526048
  - # 4
    frequency:   16.1222481930
  - # 5
    frequency:   37.2727039476
  - # 6
    frequency:   54.5405013789

- q-position: [    0.5600000,    0.2800000,    0.0000000 ]
  distance:    0.1204870
  band:
  - # 1
    frequency:  -70.9837718308
  - # 2
    frequency:    9.6015354214
  - # 3
    frequency:   15.5450673862
  - # 4
    frequency:   15.9052037329
  - # 5
    frequency:   36.9701288977
  - # 6
    frequency:   53.6585056012

- q-position: [    0.5666667,    0.2833333,    0.0000000 ]
  distance:    0.1219214
  band:
  - # 1
    frequency:  -71.8840091820
  - # 2
    frequency:    9.8187862950
  - # 3
    frequency:   15.6883805833
  - # 4
    frequency:   16.4596780421
  - # 5
    frequency:   36.6735065598
  - # 6
    frequency:   52.7401787071

- q-position: [    0.5733333,    0.2866667,    0.0000000 ]
  distance:    0.1233557
  band:
  - # 1
    frequency:  -72.7321329758
  - # 2
    frequency:   10.0334909505
  - # 3
    frequency:   15.4720669876
  - # 4
    frequency:   17.4144184443
  - # 5
    frequency:   36.3873972349
  - # 6
    frequency:   51.7873942416

- q-position: [    0.5800000,    0.2900000,    0.0000000 ]
  distance:    0.1247901
  band:
  - # 1
    frequency:  -73.5271531176
  - # 2
    frequency:   10.2456003588
  - # 3
    frequency:   15.2565626557
  - # 4
    frequency:   18.4016637530
  - # 5
    frequency:   36.1165611977
  - # 6
    frequency:   50.8021498432

- q-position: [    0.5866667,    0.2933333,    0.0000000 ]
  distance:    0.1262245
  band:
  - # 1
    frequency:  -74.2681200468
  - # 2
    frequency:   10.4550539135
  - # 3
    frequency:   15.0421805602
  - # 4
    frequency:   19.4139901326
  - # 5
    frequency:   35.8659966183
  - # 6
    frequency:   49.7866066802

- q-position: [    0.5933333,    0.2966667,    0.0000000 ]