18   
2    

1    
  0.0059950283383723  -0.0034612312154626   0.0187637819667364
   0.0959521465    0.0410973459   -0.1075066472
   0.1901196998   -0.0947156924   -0.0066085746
   0.2598394588    0.0265480396   -0.0063748991
   0.2494908908    0.0450880033   -0.0064860652
   0.3238013628   -0.0903618654    0.0045826107
   0.1691146708   -0.0937609599   -0.0065524569
   0.1798406768   -0.0760529981   -0.0063646279
   0.2390577668    0.0278896837   -0.0066633337
   0.3238015108   -0.0903583662    0.0045818431
  -0.2163121782   -0.0131637192    0.0535456783
  -0.1767921682    0.0059457581   -0.0099422464
  -0.1801097512    0.0489453760    0.0522599894
  -0.2478433102    0.1286494969   -0.0098268098
  -0.3196666592    0.0049403659   -0.0093666412
  -0.1738856492    0.0041878334    0.0025870633
  -0.1438280862   -0.0133227813    0.0521915698
  -0.2484742192    0.1339249139    0.0024984094
  -0.3241061622    0.0045195652    0.0034451382

1    
 -0.0059950283383723   0.0034612312154626  -0.0187637819667364
   0.2371064950   -0.0412714137    0.1074827335
   0.1442982390    0.0945165947    0.0063695965
   0.0738025076   -0.0268133270    0.0066081589
   0.0846425466   -0.0449698510    0.0064926005
   0.0098063780    0.0911195924   -0.0045817876
   0.1653875440    0.0941643913    0.0065392825
   0.1552102110    0.0764822100    0.0066121008
   0.0948141770   -0.0272950968    0.0064228857
   0.0098068223    0.0911213461   -0.0045815404
  -0.1178252910    0.0131648293   -0.0536664557
  -0.1574881580   -0.0058581430    0.0099474506
  -0.1535214880   -0.0500070907   -0.0521179183
  -0.0861200259   -0.1299916003    0.0100685269
  -0.0145536356   -0.0053519233    0.0091220741
  -0.1604722470   -0.0042167592   -0.0025857584
  -0.1900872410    0.0140475586   -0.0521873281
  -0.0849200626   -0.1346910943   -0.0026738003
  -0.0098867711   -0.0041502235   -0.0032708212
