phonopy:
  version: "2.40.0"
  calculator: siesta
  frequency_unit_conversion_factor: 15.633302
  symmetry_tolerance: 1.00000e-05
  configuration:
    cell_filename: "relaxed_graphene.fdf"
    create_displacements: ".true."
    dim: "3 3 1"
    calculator: "siesta"

physical_unit:
  atomic_mass: "AMU"
  length: "au"

space_group:
  type: "Cmmm"
  number: 65
  Hall_symbol: "-C 2 2"

supercell_matrix:
- [   3,   0,   0 ]
- [   0,   3,   0 ]
- [   0,   0,   1 ]

primitive_cell:
  lattice:
  - [     4.025116671915840,    -2.323902187674508,     0.000000000000000 ] # a
  - [     4.025116671915840,     2.323902187674508,     0.000000000000000 ] # b
  - [     0.000000000000000,     0.000000000000000,    37.794522740993806 ] # c
  points:
  - symbol: C # 1
    coordinates: [  0.000000000000000,  0.000000000000000,  0.000000000000000 ]
    mass: 12.010700
  - symbol: C # 2
    coordinates: [  0.333098591549296,  0.333098591549296,  0.000000000000000 ]
    mass: 12.010700
  reciprocal_lattice: # without 2pi
  - [     0.124220001742711,    -0.215155354924960,     0.000000000000000 ] # a*
  - [     0.124220001742711,     0.215155354924960,     0.000000000000000 ] # b*
  - [     0.000000000000000,     0.000000000000000,     0.026458860371197 ] # c*

unit_cell:
  lattice:
  - [     4.025116671915840,    -2.323902187674509,     0.000000000000000 ] # a
  - [     4.025116671915840,     2.323902187674509,     0.000000000000000 ] # b
  - [     0.000000000000000,     0.000000000000000,    37.794522740993806 ] # c
  points:
  - symbol: C # 1
    coordinates: [  0.000000000000000,  0.000000000000000,  0.000000000000000 ]
    mass: 12.010700
    reduced_to: 1
  - symbol: C # 2
    coordinates: [  0.333098591549296,  0.333098591549296,  0.000000000000000 ]
    mass: 12.010700
    reduced_to: 2

supercell:
  lattice:
  - [    12.075350015747521,    -6.971706563023526,     0.000000000000000 ] # a
  - [    12.075350015747521,     6.971706563023526,     0.000000000000000 ] # b
  - [     0.000000000000000,     0.000000000000000,    37.794522740993806 ] # c
  points:
  - symbol: C # 1
    coordinates: [  0.000000000000000,  0.000000000000000,  0.000000000000000 ]
    mass: 12.010700
    reduced_to: 1
  - symbol: C # 2
    coordinates: [  0.333333333333333,  0.000000000000000,  0.000000000000000 ]
    mass: 12.010700
    reduced_to: 1
  - symbol: C # 3
    coordinates: [  0.666666666666667,  0.000000000000000,  0.000000000000000 ]
    mass: 12.010700
    reduced_to: 1
  - symbol: C # 4
    coordinates: [  0.000000000000000,  0.333333333333333,  0.000000000000000 ]
    mass: 12.010700
    reduced_to: 1
  - symbol: C # 5
    coordinates: [  0.333333333333333,  0.333333333333333,  0.000000000000000 ]
    mass: 12.010700
    reduced_to: 1
  - symbol: C # 6
    coordinates: [  0.666666666666667,  0.333333333333333,  0.000000000000000 ]
    mass: 12.010700
    reduced_to: 1
  - symbol: C # 7
    coordinates: [  0.000000000000000,  0.666666666666667,  0.000000000000000 ]
    mass: 12.010700
    reduced_to: 1
  - symbol: C # 8
    coordinates: [  0.333333333333333,  0.666666666666667,  0.000000000000000 ]
    mass: 12.010700
    reduced_to: 1
  - symbol: C # 9
    coordinates: [  0.666666666666667,  0.666666666666667,  0.000000000000000 ]
    mass: 12.010700
    reduced_to: 1
  - symbol: C # 10
    coordinates: [  0.111032863849765,  0.111032863849765,  0.000000000000000 ]
    mass: 12.010700
    reduced_to: 10
  - symbol: C # 11
    coordinates: [  0.444366197183099,  0.111032863849765,  0.000000000000000 ]
    mass: 12.010700
    reduced_to: 10
  - symbol: C # 12
    coordinates: [  0.777699530516432,  0.111032863849765,  0.000000000000000 ]
    mass: 12.010700
    reduced_to: 10
  - symbol: C # 13
    coordinates: [  0.111032863849765,  0.444366197183099,  0.000000000000000 ]
    mass: 12.010700
    reduced_to: 10
  - symbol: C # 14
    coordinates: [  0.444366197183099,  0.444366197183099,  0.000000000000000 ]
    mass: 12.010700
    reduced_to: 10
  - symbol: C # 15
    coordinates: [  0.777699530516432,  0.444366197183099,  0.000000000000000 ]
    mass: 12.010700
    reduced_to: 10
  - symbol: C # 16
    coordinates: [  0.111032863849765,  0.777699530516432,  0.000000000000000 ]
    mass: 12.010700
    reduced_to: 10
  - symbol: C # 17
    coordinates: [  0.444366197183099,  0.777699530516432,  0.000000000000000 ]
    mass: 12.010700
    reduced_to: 10
  - symbol: C # 18
    coordinates: [  0.777699530516432,  0.777699530516432,  0.000000000000000 ]
    mass: 12.010700
    reduced_to: 10

displacements:
- atom:    1
  displacement:
    [   0.0059950283383723, -0.0034612312154626,  0.0187637819667364 ]
- atom:    1
  displacement:
    [  -0.0059950283383723,  0.0034612312154626, -0.0187637819667364 ]
